  -10.0000000       0.00000000    
  -9.94999981       0.00000000    
  -9.89999962       0.00000000    
  -9.85000038       0.00000000    
  -9.80000019       0.00000000    
  -9.75000000       0.00000000    
  -9.69999981       0.00000000    
  -9.64999962       0.00000000    
  -9.60000038       0.00000000    
  -9.55000019       2.38579025E-26
  -9.50000000       1.68141795E-25
  -9.44999981       2.99206732E-25
  -9.39999962      -8.87627831E-26
  -9.35000038       1.16836035E-23
  -9.30000019       1.49394087E-22
  -9.25000000       9.22331828E-22
  -9.19999981       3.80153953E-21
  -9.14999962       1.14999479E-20
  -9.10000038       2.58266741E-20
  -9.05000019       3.91352880E-20
  -9.00000000       1.67430209E-20
  -8.94999981      -1.21313727E-19
  -8.89999962      -4.85742479E-19
  -8.85000038      -1.10810428E-18
  -8.80000019      -1.67912660E-18
  -8.75000000      -1.18703592E-18
  -8.69999981       2.23274576E-18
  -8.64999962       1.05840117E-17
  -8.60000038       2.36593871E-17
  -8.55000019       3.49201939E-17
  -8.50000000       2.73743578E-17
  -8.44999981      -2.57962015E-17
  -8.39999962      -1.48691221E-16
  -8.35000038      -3.32639897E-16
  -8.30000019      -4.92684602E-16
  -8.25000000      -4.33817771E-16
  -8.19999981       1.26901444E-16
  -8.14999962       1.42614588E-15
  -8.10000038       3.37960873E-15
  -8.05000019       5.22510824E-15
  -8.00000000       5.28229355E-15
  -7.94999981       1.16610295E-15
  -7.90000010      -9.18653733E-15
  -7.84999990      -2.55521194E-14
  -7.80000019      -4.29712215E-14
  -7.75000000      -5.01007791E-14
  -7.69999981      -3.03834005E-14
  -7.65000010       3.19465422E-14
  -7.59999990       1.40394356E-13
  -7.55000019       2.71750477E-13
  -7.50000000       3.65355803E-13
  -7.44999981       3.26338403E-13
  -7.40000010       5.30775036E-14
  -7.34999990      -5.07274940E-13
  -7.30000019      -1.28535095E-12
  -7.25000000      -2.02718268E-12
  -7.19999981      -2.28795954E-12
  -7.15000010      -1.52886677E-12
  -7.09999990       6.59799418E-13
  -7.05000019       4.23981726E-12
  -7.00000000       8.41532139E-12
  -6.94999981       1.15042498E-11
  -6.90000010       1.11820570E-11
  -6.84999990       5.21850445E-12
  -6.80000019      -7.34984469E-12
  -6.75000000      -2.49273640E-11
  -6.69999981      -4.25164765E-11
  -6.65000010      -5.20084913E-11
  -6.59999990      -4.41328953E-11
  -6.55000019      -1.20817583E-11
  -6.50000000       4.39697272E-11
  -6.44999981       1.13072961E-10
  -6.40000010       1.72589207E-10
  -6.34999990       1.92059466E-10
  -6.30000019       1.42533443E-10
  -6.25000000       9.86950972E-12
  -6.19999981      -1.91995975E-10
  -6.15000010      -4.13679618E-10
  -6.09999990      -5.74824688E-10
  -6.05000019      -5.83797677E-10
  -6.00000000      -3.70795811E-10
  -5.94999981       7.40699932E-11
  -5.90000010       6.71852352E-10
  -5.84999990       1.25100685E-09
  -5.80000019       1.58045743E-09
  -5.75000000       1.44004164E-09
  -5.69999981       7.13228698E-10
  -5.65000010      -5.28152078E-10
  -5.59999990      -1.98531858E-09
  -5.55000019      -3.17276450E-09
  -5.50000000      -3.54865892E-09
  -5.44999981      -2.71302669E-09
  -5.40000010      -6.15194229E-10
  -5.34999990       2.31198571E-09
  -5.30000019       5.17106358E-09
  -5.25000000       6.81502987E-09
  -5.19999981       6.23411767E-09
  -5.15000010       3.01065461E-09
  -5.09999990      -2.32373765E-09
  -5.05000019      -8.20742496E-09
  -5.00000000      -1.23663160E-08
  -4.94999981      -1.25259030E-08
  -4.90000010      -7.35022887E-09
  -4.84999990       2.70580292E-09
  -4.80000019       1.50071369E-08
  -4.75000000       2.51168846E-08
  -4.69999981       2.80290688E-08
  -4.65000010       2.00235419E-08
  -4.59999990       5.89493010E-10
  -4.55000019      -2.63310138E-08
  -4.50000000      -5.24817203E-08
  -4.44999981      -6.71767850E-08
  -4.40000010      -6.07154007E-08
  -4.34999990      -2.84501827E-08
  -4.30000019       2.58713015E-08
  -4.25000000       8.89828442E-08
  -4.19999981       1.40251259E-07
  -4.15000010       1.57206813E-07
  -4.09999990       1.23309292E-07
  -4.05000019       3.56657210E-08
  -4.00000000      -9.01613717E-08
  -3.95000005      -2.20773998E-07
  -3.90000010      -3.12146170E-07
  -3.84999990      -3.22461688E-07
  -3.79999995      -2.27353212E-07
  -3.75000000      -3.26844294E-08
  -3.70000005       2.20231669E-07
  -3.65000010       4.60554645E-07
  -3.59999990       6.05410094E-07
  -3.54999995       5.85407406E-07
  -3.50000000       3.71071650E-07
  -3.45000005      -8.72718253E-09
  -3.40000010      -4.64309181E-07
  -3.34999990      -8.62737807E-07
  -3.29999995      -1.06336893E-06
  -3.25000000      -9.62846684E-07
  -3.20000005      -5.36187713E-07
  -3.15000010       1.40511787E-07
  -3.09999990       8.96607048E-07
  -3.04999995       1.50561652E-06
  -3.00000000       1.74881677E-06
  -2.95000005       1.48694596E-06
  -2.90000010       7.17844273E-07
  -2.84999990      -4.00983339E-07
  -2.79999995      -1.57760019E-06
  -2.75000000      -2.45764318E-06
  -2.70000005      -2.72668149E-06
  -2.65000010      -2.21434357E-06
  -2.59999990      -9.67141432E-07
  -2.54999995       7.37357766E-07
  -2.50000000       2.44702846E-06
  -2.45000005       3.65318442E-06
  -2.40000010       3.94014296E-06
  -2.34999990       3.12284897E-06
  -2.29999995       1.32796322E-06
  -2.25000000      -1.01308240E-06
  -2.20000005      -3.26590384E-06
  -2.15000010      -4.76734022E-06
  -2.09999990      -5.02433522E-06
  -2.04999995      -3.87756927E-06
  -2.00000000      -1.57558156E-06
  -1.95000005       1.27130500E-06
  -1.89999998       3.85250678E-06
  -1.85000002       5.39242228E-06
  -1.79999995       5.39101029E-06
  -1.75000000       3.79436801E-06
  -1.70000005       1.03666457E-06
  -1.64999998      -2.06850723E-06
  -1.60000002      -4.56278576E-06
  -1.54999995      -5.63719004E-06
  -1.50000000      -4.89580634E-06
  -1.45000005      -2.50298194E-06
  -1.39999998       8.39972301E-07
  -1.35000002       4.09098584E-06
  -1.29999995       6.18308604E-06
  -1.25000000       6.36481172E-06
  -1.20000005       4.45667274E-06
  -1.14999998       9.36376523E-07
  -1.10000002      -3.18340585E-06
  -1.04999995      -6.65503967E-06
  -1.00000000      -8.38418964E-06
 -0.949999988      -7.78330741E-06
 -0.899999976      -4.97284418E-06
 -0.850000024      -7.57775751E-07
 -0.800000012       3.62117157E-06
 -0.750000000       6.88632781E-06
 -0.699999988       8.14225314E-06
 -0.649999976       7.17259672E-06
 -0.600000024       4.50743528E-06
 -0.550000012       1.22865640E-06
 -0.500000000      -1.42822796E-06
 -0.449999988      -2.54135057E-06
 -0.400000006      -1.87074738E-06
 -0.349999994       1.63865455E-08
 -0.300000012       1.92953803E-06
 -0.250000000       2.50533003E-06
 -0.200000003       7.78959361E-07
 -0.150000006      -3.32929426E-06
 -0.100000001      -8.80995140E-06
  -5.00000007E-02  -1.37588049E-05
   5.55111512E-16  -1.59533756E-05
   5.00000007E-02  -1.36521376E-05
  0.100000001      -6.35447896E-06
  0.150000006       4.76250170E-06
  0.200000003       1.69380928E-05
  0.250000000       2.65012077E-05
  0.300000012       2.99740514E-05
  0.349999994       2.52867430E-05
  0.400000006       1.27008934E-05
  0.449999988      -4.91518631E-06
  0.500000000      -2.26450538E-05
  0.550000012      -3.48455578E-05
  0.600000024      -3.68958135E-05
  0.649999976      -2.68529820E-05
  0.699999988      -6.45874707E-06
  0.750000000       1.89166385E-05
  0.800000012       4.15110662E-05
  0.850000024       5.33391867E-05
  0.899999976       4.87154975E-05
  0.949999988       2.63742786E-05
   1.00000000      -9.52995470E-06
   1.04999995      -4.99857379E-05
   1.10000002      -8.32562364E-05
   1.14999998      -9.80982368E-05
   1.20000005      -8.72037199E-05
   1.25000000      -4.98453664E-05
   1.29999995       7.14892030E-06
   1.35000002       7.05449274E-05
   1.39999998       1.23831152E-04
   1.45000005       1.51584332E-04
   1.50000000       1.43902231E-04
   1.54999995       9.96258605E-05
   1.60000002       2.73350252E-05
   1.64999998      -5.63207795E-05
   1.70000005      -1.30649933E-04
   1.75000000      -1.76301270E-04
   1.79999995      -1.80554140E-04
   1.85000002      -1.41022058E-04
   1.89999998      -6.66610940E-05
   1.95000005       2.43039012E-05
   2.00000000       1.09058572E-04
   2.04999995       1.66249738E-04
   2.09999990       1.81746189E-04
   2.15000010       1.52487017E-04
   2.20000005       8.73028257E-05
   2.25000000       4.43630097E-06
   2.29999995      -7.35738140E-05
   2.34999990      -1.26218743E-04
   2.40000010      -1.40768825E-04
   2.45000005      -1.15812552E-04
   2.50000000      -6.15829340E-05
   2.54999995       3.00529928E-06
   2.59999990       5.57306448E-05
   2.65000010       7.72804124E-05
   2.70000005       5.65047412E-05
   2.75000000      -6.78691640E-06
   2.79999995      -1.02231599E-04
   2.84999990      -2.12297862E-04
   2.90000010      -3.17536789E-04
   2.95000005      -4.02048725E-04
   3.00000000      -4.57496819E-04
   3.04999995      -4.84503718E-04
   3.09999990      -4.91136510E-04
   3.15000010      -4.89139173E-04
   3.20000005      -4.89303668E-04
   3.25000000      -4.97638248E-04
   3.29999995      -5.13699488E-04
   3.34999990      -5.31693746E-04
   3.40000010      -5.43965609E-04
   3.45000005      -5.45608578E-04
   3.50000000      -5.38453576E-04
   3.54999995      -5.32810402E-04
   3.59999990      -5.46025170E-04
   3.65000010      -5.97990467E-04
   3.70000005      -7.04845181E-04
   3.75000000      -8.72864621E-04
   3.79999995      -1.09468575E-03
   3.84999990      -1.34944357E-03
   3.90000010      -1.60725240E-03
   3.95000005      -1.83708232E-03
   4.00000000      -2.01590452E-03
   4.05000019      -2.13638088E-03
   4.09999990      -2.21061474E-03
   4.15000010      -2.26850691E-03
   4.19999981      -2.35082954E-03
   4.25000000      -2.49873358E-03
   4.30000019      -2.74259504E-03
   4.34999990      -3.09344684E-03
   4.40000010      -3.53961764E-03
   4.44999981      -4.04975610E-03
   4.50000000      -4.58157063E-03
   4.55000019      -5.09391073E-03
   4.59999990      -5.55878226E-03
   4.65000010      -5.96986851E-03
   4.69999981      -6.34510489E-03
   4.75000000      -6.72259927E-03
   4.80000019      -7.15113571E-03
   4.84999990      -7.67805008E-03
   4.90000010      -8.33801366E-03
   4.94999981      -9.14588291E-03
   5.00000000      -1.00954929E-02
   5.05000019      -1.11644296E-02
   5.09999990      -1.23230182E-02
   5.15000010      -1.35445660E-02
   5.19999981      -1.48136821E-02
   5.25000000      -1.61302518E-02
   5.30000019      -1.75081771E-02
   5.34999990      -1.89697687E-02
   5.40000010      -2.05380525E-02
   5.44999981      -2.22299173E-02
   5.50000000      -2.40525994E-02
   5.55000019      -2.60047633E-02
   5.59999990      -2.80818176E-02
   5.65000010      -3.02834585E-02
   5.69999981      -3.26206051E-02
   5.75000000      -3.51189785E-02
   5.80000019      -3.78175452E-02
   5.84999990      -4.07618806E-02
   5.90000010      -4.39941138E-02
   5.94999981      -4.75426614E-02
   6.00000000      -5.14150783E-02
   6.05000019      -5.55968210E-02
   6.09999990      -6.00569434E-02
   6.15000010      -6.47596419E-02
   6.19999981      -6.96787462E-02
   6.25000000      -7.48110488E-02
   6.30000019      -8.01844150E-02
   6.34999990      -8.58579800E-02
   6.40000010      -9.19137225E-02
   6.44999981      -9.84413475E-02
   6.50000000     -0.105520211    
   6.55000019     -0.113203257    
   6.59999990     -0.121507481    
   6.65000010     -0.130413994    
   6.69999981     -0.139877900    
   6.75000000     -0.149846062    
   6.80000019     -0.160277754    
   6.84999990     -0.171163157    
   6.90000010     -0.182534322    
   6.94999981     -0.194465593    
   7.00000000     -0.207062870    
   7.05000019     -0.220444635    
   7.09999990     -0.234719515    
   7.15000010     -0.249966666    
   7.19999981     -0.266224295    
   7.25000000     -0.283489704    
   7.30000019     -0.301730841    
   7.34999990     -0.320906818    
   7.40000010     -0.340990722    
   7.44999981     -0.361989409    
   7.50000000     -0.383953750    
   7.55000019     -0.406976402    
   7.59999990     -0.431178033    
   7.65000010     -0.456685424    
   7.69999981     -0.483607471    
   7.75000000     -0.512017071    
   7.80000019     -0.541943073    
   7.84999990     -0.573375762    
   7.90000010     -0.606283247    
   7.94999981     -0.640635192    
   8.00000000     -0.676425636    
   8.05000019     -0.713688672    
   8.10000038     -0.752502918    
   8.14999962     -0.792981625    
   8.19999981     -0.835253656    
   8.25000000     -0.879440010    
   8.30000019     -0.925632894    
   8.35000038     -0.973883808    
   8.39999962      -1.02420461    
   8.44999981      -1.07658041    
   8.50000000      -1.13098979    
   8.55000019      -1.18742692    
   8.60000038      -1.24591827    
   8.64999962      -1.30652893    
   8.69999981      -1.36935735    
   8.75000000      -1.43451917    
   8.80000019      -1.50212705    
   8.85000038      -1.57227182    
   8.89999962      -1.64500964    
   8.94999981      -1.72035956    
   9.00000000      -1.79831100    
   9.05000019      -1.87883925    
   9.10000038      -1.96192110    
   9.14999962      -2.04754996    
   9.19999981      -2.13574290    
   9.25000000      -2.22654176    
   9.30000019      -2.32000375    
   9.35000038      -2.41619349    
   9.39999962      -2.51516819    
   9.44999981      -2.61696982    
   9.50000000      -2.72162080    
   9.55000019      -2.82912445    
   9.60000038      -2.93946934    
   9.64999962      -3.05263543    
   9.69999981      -3.16860080    
   9.75000000      -3.28734541    
   9.80000019      -3.40885377    
   9.85000038      -3.53311276    
   9.89999962      -3.66010976    
   9.94999981      -3.78982925    
   10.0000000      -3.92225027    
   10.0500002      -4.05734205    
   10.1000004      -4.19506550    
   10.1499996      -4.33537245    
   10.1999998      -4.47821045    
   10.2500000      -4.62352753    
   10.3000002      -4.77127600    
   10.3500004      -4.92141533    
   10.3999996      -5.07391167    
   10.4499998      -5.22873497    
   10.5000000      -5.38585091    
   10.5500002      -5.54520941    
   10.6000004      -5.70673513    
   10.6499996      -5.87032032    
   10.6999998      -6.03582811    
   10.7500000      -6.20309591    
   10.8000002      -6.37195587    
   10.8500004      -6.54225254    
   10.8999996      -6.71385670    
   10.9499998      -6.88667631    
   11.0000000      -7.06065750    
   11.0500002      -7.23577023    
   11.1000004      -7.41198969    
   11.1499996      -7.58927298    
   11.1999998      -7.76754141    
   11.2500000      -7.94666862    
   11.3000002      -8.12648582    
   11.3500004      -8.30679512    
   11.3999996      -8.48739338    
   11.4499998      -8.66808510    
   11.5000000      -8.84870720    
   11.5500002      -9.02912617    
   11.6000004      -9.20923424    
   11.6499996      -9.38893509    
   11.6999998      -9.56812763    
   11.7500000      -9.74669456    
   11.8000002      -9.92449951    
   11.8500004      -10.1013899    
   11.8999996      -10.2772150    
   11.9499998      -10.4518290    
   12.0000000      -10.6251097    
   12.0500002      -10.7969551    
   12.1000004      -10.9672756    
   12.1499996      -11.1359882    
   12.1999998      -11.3029985    
   12.2500000      -11.4681902    
   12.3000002      -11.6314306    
   12.3500004      -11.7925758    
   12.3999996      -11.9514771    
   12.4499998      -12.1080008    
   12.5000000      -12.2620373    
   12.5500002      -12.4134979    
   12.6000004      -12.5623169    
   12.6499996      -12.7084341    
   12.6999998      -12.8517923    
   12.7500000      -12.9923191    
   12.8000002      -13.1299372    
   12.8500004      -13.2645617    
   12.8999996      -13.3961153    
   12.9499998      -13.5245352    
   13.0000000      -13.6497841    
   13.0500002      -13.7718449    
   13.1000004      -13.8907223    
   13.1499996      -14.0064297    
   13.1999998      -14.1189747    
   13.2500000      -14.2283592    
   13.3000002      -14.3345699    
   13.3500004      -14.4375820    
   13.3999996      -14.5373659    
   13.4499998      -14.6338940    
   13.5000000      -14.7271538    
   13.5500002      -14.8171434    
   13.6000004      -14.9038792    
   13.6499996      -14.9873867    
   13.6999998      -15.0677099    
   13.7500000      -15.1448975    
   13.8000002      -15.2190094    
   13.8500004      -15.2901182    
   13.8999996      -15.3583012    
   13.9499998      -15.4236507    
   14.0000000      -15.4862595    
   14.0500002      -15.5462217    
   14.1000004      -15.6036329    
   14.1499996      -15.6585798    
   14.1999998      -15.7111397    
   14.2500000      -15.7613840    
   14.3000002      -15.8093843    
   14.3500004      -15.8552113    
   14.3999996      -15.8989410    
   14.4499998      -15.9406557    
   14.5000000      -15.9804420    
   14.5500002      -16.0183907    
   14.6000004      -16.0545979    
   14.6499996      -16.0891590    
   14.6999998      -16.1221733    
   14.7500000      -16.1537418    
   14.8000002      -16.1839771    
   14.8500004      -16.2130013    
   14.8999996      -16.2409496    
   14.9499998      -16.2679691    
   15.0000000      -16.2942142    
   15.0500002      -16.3198452    
   15.1000004      -16.3450127    
   15.1499996      -16.3698540    
   15.1999998      -16.3944817    
   15.2500000      -16.4189873    
   15.3000002      -16.4434261    
   15.3500004      -16.4678326    
   15.3999996      -16.4922256    
   15.4499998      -16.5166225    
   15.5000000      -16.5410500    
   15.5500002      -16.5655651    
   15.6000004      -16.5902634    
   15.6499996      -16.6152744    
   15.6999998      -16.6407623    
   15.7500000      -16.6669083    
   15.8000002      -16.6938839    
   15.8500004      -16.7218399    
   15.8999996      -16.7509003    
   15.9499998      -16.7811375    
   16.0000000      -16.8125973    
   16.0499992      -16.8453007    
   16.1000004      -16.8792610    
   16.1499996      -16.9144917    
   16.2000008      -16.9510231    
   16.2500000      -16.9888878    
   16.2999992      -17.0281181    
   16.3500004      -17.0687580    
   16.3999996      -17.1108341    
   16.4500008      -17.1543808    
   16.5000000      -17.1994343    
   16.5499992      -17.2460461    
   16.6000004      -17.2942905    
   16.6499996      -17.3442612    
   16.7000008      -17.3960629    
   16.7500000      -17.4497910    
   16.7999992      -17.5055313    
   16.8500004      -17.5633297    
   16.8999996      -17.6232090    
   16.9500008      -17.6851597    
   17.0000000      -17.7491608    
   17.0499992      -17.8151894    
   17.1000004      -17.8832455    
   17.1499996      -17.9533310    
   17.2000008      -18.0254574    
   17.2500000      -18.0996323    
   17.2999992      -18.1758461    
   17.3500004      -18.2540894    
   17.3999996      -18.3343449    
   17.4500008      -18.4166203    
   17.5000000      -18.5009651    
   17.5499992      -18.5874729    
   17.6000004      -18.6762772    
   17.6499996      -18.7675228    
   17.7000008      -18.8613281    
   17.7500000      -18.9577579    
   17.7999992      -19.0568066    
   17.8500004      -19.1583977    
   17.8999996      -19.2624149    
   17.9500008      -19.3687534    
   18.0000000      -19.4773483    
   18.0499992      -19.5882168    
   18.1000004      -19.7014408    
   18.1499996      -19.8171520    
   18.2000008      -19.9354954    
   18.2500000      -20.0565701    
   18.2999992      -20.1804180    
   18.3500004      -20.3070164    
   18.3999996      -20.4363060    
   18.4500008      -20.5682468    
   18.5000000      -20.7028446    
   18.5499992      -20.8401890    
   18.6000004      -20.9804382    
   18.6499996      -21.1237850    
   18.7000008      -21.2703896    
   18.7500000      -21.4203415    
   18.7999992      -21.5736389    
   18.8500004      -21.7301750    
   18.8999996      -21.8898067    
   18.9500008      -22.0524063    
   19.0000000      -22.2179222    
   19.0499992      -22.3864136    
   19.1000004      -22.5580521    
   19.1499996      -22.7330723    
   19.2000008      -22.9117107    
   19.2500000      -23.0941525    
   19.2999992      -23.2804832    
   19.3500004      -23.4706936    
   19.3999996      -23.6647224    
   19.4500008      -23.8624954    
   19.5000000      -24.0639820    
   19.5499992      -24.2692204    
   19.6000004      -24.4783134    
   19.6499996      -24.6913795    
   19.7000008      -24.9085140    
   19.7500000      -25.1297398    
   19.7999992      -25.3550129    
   19.8500004      -25.5842285    
   19.8999996      -25.8172894    
   19.9500008      -26.0541496    
   20.0000000      -26.2948551    
   20.0499992      -26.5395508    
   20.1000004      -26.7884426    
   20.1499996      -27.0417309    
   20.2000008      -27.2995491    
   20.2500000      -27.5619144    
   20.2999992      -27.8287220    
   20.3500004      -28.0997772    
   20.3999996      -28.3748684    
   20.4500008      -28.6538086    
   20.5000000      -28.9365082    
   20.5499992      -29.2229633    
   20.6000004      -29.5132236    
   20.6499996      -29.8073540    
   20.7000008      -30.1053600    
   20.7500000      -30.4071617    
   20.7999992      -30.7126045    
   20.8500004      -31.0214901    
   20.8999996      -31.3336296    
   20.9500008      -31.6488991    
   21.0000000      -31.9672432    
   21.0499992      -32.2886696    
   21.1000004      -32.6131897    
   21.1499996      -32.9407539    
   21.2000008      -33.2712173    
   21.2500000      -33.6043053    
   21.2999992      -33.9396591    
   21.3500004      -34.2768860    
   21.3999996      -34.6156349    
   21.4500008      -34.9556503    
   21.5000000      -35.2967720    
   21.5499992      -35.6389351    
   21.6000004      -35.9820786    
   21.6499996      -36.3261032    
   21.7000008      -36.6707993    
   21.7500000      -37.0158501    
   21.7999992      -37.3608513    
   21.8500004      -37.7053490    
   21.8999996      -38.0489159    
   21.9500008      -38.3912239    
   22.0000000      -38.7320061    
   22.0499992      -39.0710678    
   22.1000004      -39.4082336    
   22.1499996      -39.7432861    
   22.2000008      -40.0759430    
   22.2500000      -40.4058418    
   22.2999992      -40.7325592    
   22.3500004      -41.0556717    
   22.3999996      -41.3747673    
   22.4500008      -41.6894875    
   22.5000000      -41.9995232    
   22.5499992      -42.3045692    
   22.6000004      -42.6043243    
   22.6499996      -42.8984642    
   22.7000008      -43.1866074    
   22.7500000      -43.4683609    
   22.7999992      -43.7433357    
   22.8500004      -44.0111809    
   22.8999996      -44.2715988    
   22.9500008      -44.5243378    
   23.0000000      -44.7691765    
   23.0499992      -45.0058670    
   23.1000004      -45.2341309    
   23.1499996      -45.4536324    
   23.2000008      -45.6640167    
   23.2500000      -45.8649216    
   23.2999992      -46.0560226    
   23.3500004      -46.2370567    
   23.3999996      -46.4078255    
   23.4500008      -46.5681686    
   23.5000000      -46.7179222    
   23.5499992      -46.8569069    
   23.6000004      -46.9849205    
   23.6499996      -47.1017265    
   23.7000008      -47.2070961    
   23.7500000      -47.3008423    
   23.7999992      -47.3828506    
   23.8500004      -47.4530716    
   23.8999996      -47.5115051    
   23.9500008      -47.5581551    
   24.0000000      -47.5929794    
   24.0499992      -47.6158905    
   24.1000004      -47.6267548    
   24.1499996      -47.6254349    
   24.2000008      -47.6118355    
   24.2500000      -47.5859489    
   24.2999992      -47.5478859    
   24.3500004      -47.4978333    
   24.3999996      -47.4360275    
   24.4500008      -47.3626747    
   24.5000000      -47.2779312    
   24.5499992      -47.1818504    
   24.6000004      -47.0744362    
   24.6499996      -46.9556694    
   24.7000008      -46.8255997    
   24.7500000      -46.6843719    
   24.7999992      -46.5322571    
   24.8500004      -46.3696098    
   24.8999996      -46.1968117    
   24.9500008      -46.0142136    
   25.0000000      -45.8220749    
   25.0499992      -45.6205750    
   25.1000004      -45.4098396    
   25.1499996      -45.1900063    
   25.2000008      -44.9612808    
   25.2500000      -44.7239952    
   25.2999992      -44.4785843    
   25.3500004      -44.2255440    
   25.3999996      -43.9653893    
   25.4500008      -43.6985588    
   25.5000000      -43.4253693    
   25.5499992      -43.1460648    
   25.6000004      -42.8608055    
   25.6499996      -42.5697708    
   25.7000008      -42.2732277    
   25.7500000      -41.9715424    
   25.7999992      -41.6651688    
   25.8500004      -41.3546295    
   25.8999996      -41.0404320    
   25.9500008      -40.7230072    
   26.0000000      -40.4026985    
   26.0499992      -40.0797539    
   26.1000004      -39.7544098    
   26.1499996      -39.4268990    
   26.2000008      -39.0975456    
   26.2500000      -38.7667351    
   26.2999992      -38.4349098    
   26.3500004      -38.1025314    
   26.3999996      -37.7699814    
   26.4500008      -37.4375725    
   26.5000000      -37.1055412    
   26.5499992      -36.7740440    
   26.6000004      -36.4432678    
   26.6499996      -36.1134262    
   26.7000008      -35.7848244    
   26.7500000      -35.4578171    
   26.7999992      -35.1327972    
   26.8500004      -34.8101234    
   26.8999996      -34.4900856    
   26.9500008      -34.1728783    
   27.0000000      -33.8586197    
   27.0499992      -33.5473938    
   27.1000004      -33.2392807    
   27.1499996      -32.9344177    
   27.2000008      -32.6330147    
   27.2500000      -32.3353081    
   27.2999992      -32.0415421    
   27.3500004      -31.7519188    
   27.3999996      -31.4665737    
   27.4500008      -31.1855736    
   27.5000000      -30.9089546    
   27.5499992      -30.6367512    
   27.6000004      -30.3690434    
   27.6499996      -30.1059570    
   27.7000008      -29.8476601    
   27.7500000      -29.5943146    
   27.7999992      -29.3460255    
   27.8500004      -29.1028233    
   27.8999996      -28.8646488    
   27.9500008      -28.6313877    
   28.0000000      -28.4029217    
   28.0499992      -28.1791801    
   28.1000004      -27.9601669    
   28.1499996      -27.7459641    
   28.2000008      -27.5366783    
   28.2500000      -27.3324127    
   28.2999992      -27.1331940    
   28.3500004      -26.9389668    
   28.3999996      -26.7496109    
   28.4500008      -26.5649719    
   28.5000000      -26.3849297    
   28.5499992      -26.2094345    
   28.6000004      -26.0385189    
   28.6499996      -25.8722630    
   28.7000008      -25.7107353    
   28.7500000      -25.5539303    
   28.7999992      -25.4017296    
   28.8500004      -25.2539101    
   28.8999996      -25.1101704    
   28.9500008      -24.9702320    
   29.0000000      -24.8338890    
   29.0499992      -24.7010765    
   29.1000004      -24.5718555    
   29.1499996      -24.4463692    
   29.2000008      -24.3247623    
   29.2500000      -24.2070942    
   29.2999992      -24.0933018    
   29.3500004      -23.9831829    
   29.3999996      -23.8764591    
   29.4500008      -23.7728386    
   29.5000000      -23.6721058    
   29.5499992      -23.5741634    
   29.6000004      -23.4790287    
   29.6499996      -23.3867817    
   29.7000008      -23.2974911    
   29.7500000      -23.2111416    
   29.7999992      -23.1275997    
   29.8500004      -23.0466213    
   29.8999996      -22.9679241    
   29.9500008      -22.8912506    
   30.0000000      -22.8164577    
   30.0499992      -22.7435417    
   30.1000004      -22.6726208    
   30.1499996      -22.6038704    
   30.2000008      -22.5374432    
   30.2500000      -22.4733734    
   30.2999992      -22.4115658    
   30.3500004      -22.3517838    
   30.3999996      -22.2937279    
   30.4500008      -22.2371044    
   30.5000000      -22.1817150    
   30.5499992      -22.1274834    
   30.6000004      -22.0744476    
   30.6499996      -22.0227146    
   30.7000008      -21.9723682    
   30.7500000      -21.9234276    
   30.7999992      -21.8758125    
   30.8500004      -21.8293552    
   30.8999996      -21.7838669    
   30.9500008      -21.7392025    
   31.0000000      -21.6953087    
   31.0499992      -21.6522522    
   31.1000004      -21.6101875    
   31.1499996      -21.5692844    
   31.2000008      -21.5296612    
   31.2500000      -21.4913120    
   31.2999992      -21.4541054    
   31.3500004      -21.4177895    
   31.3999996      -21.3820782    
   31.4500008      -21.3467159    
   31.5000000      -21.3115673    
   31.5499992      -21.2766285    
   31.6000004      -21.2420158    
   31.6499996      -21.2079086    
   31.7000008      -21.1744671    
   31.7500000      -21.1417789    
   31.7999992      -21.1098194    
   31.8500004      -21.0784702    
   31.8999996      -21.0475636    
   31.9500008      -21.0169449    
   32.0000000      -20.9865437    
   32.0499992      -20.9563866    
   32.0999985      -20.9265881    
   32.1500015      -20.8972969    
   32.2000008      -20.8686428    
   32.2500000      -20.8406582    
   32.2999992      -20.8132706    
   32.3499985      -20.7863140    
   32.4000015      -20.7595711    
   32.4500008      -20.7328453    
   32.5000000      -20.7060223    
   32.5499992      -20.6791019    
   32.5999985      -20.6521912    
   32.6500015      -20.6254559    
   32.7000008      -20.5990601    
   32.7500000      -20.5731049    
   32.7999992      -20.5475960    