  -10.0000000       0.00000000    
  -9.94999981       0.00000000    
  -9.89999962       0.00000000    
  -9.85000038       0.00000000    
  -9.80000019       0.00000000    
  -9.75000000       0.00000000    
  -9.69999981       0.00000000    
  -9.64999962       0.00000000    
  -9.60000038       0.00000000    
  -9.55000019       0.00000000    
  -9.50000000       0.00000000    
  -9.44999981       2.25112433E-37
  -9.39999962       1.98250451E-35
  -9.35000038       2.64169534E-34
  -9.30000019       1.79579152E-33
  -9.25000000       8.05930388E-33
  -9.19999981       2.81204962E-32
  -9.14999962       9.27364949E-32
  -9.10000038       3.36036337E-31
  -9.05000019       1.24783286E-30
  -9.00000000       4.00540390E-30
  -8.94999981       9.63702317E-30
  -8.89999962       1.30183099E-29
  -8.85000038      -1.45494167E-29
  -8.80000019      -1.52605609E-28
  -8.75000000      -5.31277790E-28
  -8.69999981      -1.19446695E-27
  -8.64999962      -1.66394088E-27
  -8.60000038      -1.88126342E-28
  -8.55000019       6.70877435E-27
  -8.50000000       2.25500574E-26
  -8.44999981       4.42546099E-26
  -8.39999962       4.91930579E-26
  -8.35000038      -1.76982408E-26
  -8.30000019      -2.34968482E-25
  -8.25000000      -6.36050856E-25
  -8.19999981      -1.04978424E-24
  -8.14999962      -8.85599017E-25
  -8.10000038       9.47679017E-25
  -8.05000019       5.60165672E-24
  -8.00000000       1.28720335E-23
  -7.94999981       1.87416943E-23
  -7.90000010       1.29922070E-23
  -7.84999990      -2.01139383E-23
  -7.80000019      -9.34649027E-23
  -7.75000000      -1.97366675E-22
  -7.69999981      -2.71237137E-22
  -7.65000010      -1.83092925E-22
  -7.59999990       2.49603668E-22
  -7.55000019       1.15542056E-21
  -7.50000000       2.39865010E-21
  -7.44999981       3.31079182E-21
  -7.40000010       2.53182921E-21
  -7.34999990      -1.74279443E-21
  -7.30000019      -1.07824568E-20
  -7.25000000      -2.34950168E-20
  -7.19999981      -3.42132758E-20
  -7.15000010      -3.14381947E-20
  -7.09999990       2.79868689E-22
  -7.05000019       7.30708670E-20
  -7.00000000       1.82435938E-19
  -6.94999981       2.91105511E-19
  -6.90000010       3.18874326E-19
  -6.84999990       1.52261074E-19
  -6.80000019      -3.11896541E-19
  -6.75000000      -1.08421810E-18
  -6.69999981      -1.97914480E-18
  -6.65000010      -2.53834350E-18
  -6.59999990      -2.05778403E-18
  -6.55000019       2.01148017E-19
  -6.50000000       4.58100771E-18
  -6.44999981       1.04495171E-17
  -6.40000010       1.56983114E-17
  -6.34999990       1.66899289E-17
  -6.30000019       9.06340308E-18
  -6.25000000      -1.03652141E-17
  -6.19999981      -4.08220978E-17
  -6.15000010      -7.48044310E-17
  -6.09999990      -9.68841844E-17
  -6.05000019      -8.59419481E-17
  -6.00000000      -2.21481282E-17
  -5.94999981       1.01639666E-16
  -5.90000010       2.67009375E-16
  -5.84999990       4.21411173E-16
  -5.80000019       4.81222499E-16
  -5.75000000       3.52601869E-16
  -5.69999981      -2.89446114E-17
  -5.65000010      -6.48319653E-16
  -5.59999990      -1.36828813E-15
  -5.55000019      -1.92022179E-15
  -5.50000000      -1.95231353E-15
  -5.44999981      -1.14515011E-15
  -5.40000010       6.22712735E-16
  -5.34999990       3.11025564E-15
  -5.30000019       5.62866861E-15
  -5.25000000       7.11665732E-15
  -5.19999981       6.42363741E-15
  -5.15000010       2.77376566E-15
  -5.09999990      -3.71455372E-15
  -5.05000019      -1.16655614E-14
  -5.00000000      -1.84783117E-14
  -4.94999981      -2.09191083E-14
  -4.90000010      -1.62525378E-14
  -4.84999990      -3.62798060E-15
  -4.80000019       1.48057869E-14
  -4.75000000       3.36861818E-14
  -4.69999981       4.55947231E-14
  -4.65000010       4.36073940E-14
  -4.59999990       2.45981299E-14
  -4.55000019      -7.97926890E-15
  -4.50000000      -4.33941789E-14
  -4.44999981      -6.62344731E-14
  -4.40000010      -6.23887199E-14
  -4.34999990      -2.68520625E-14
  -4.30000019       2.98319244E-14
  -4.25000000       8.04471575E-14
  -4.19999981       8.83838901E-14
  -4.15000010       2.35774636E-14
  -4.09999990      -1.16931475E-13
  -4.05000019      -2.92177523E-13
  -4.00000000      -4.14791899E-13
  -3.95000005      -3.71541339E-13
  -3.90000010      -6.84581447E-14
  -3.84999990       5.09153863E-13
  -3.79999995       1.24358759E-12
  -3.75000000       1.86765859E-12
  -3.70000005       2.01010432E-12
  -3.65000010       1.31352177E-12
  -3.59999990      -3.93639819E-13
  -3.54999995      -2.92277313E-12
  -3.50000000      -5.62527715E-12
  -3.45000005      -7.44611317E-12
  -3.40000010      -7.17808061E-12
  -3.34999990      -3.89834085E-12
  -3.29999995       2.51715272E-12
  -3.25000000       1.09829975E-11
  -3.20000005       1.91117209E-11
  -3.15000010       2.36096767E-11
  -3.09999990       2.12002221E-11
  -3.04999995       9.91389176E-12
  -3.00000000      -9.62470815E-12
  -2.95000005      -3.34230837E-11
  -2.90000010      -5.43564915E-11
  -2.84999990      -6.36934949E-11
  -2.79999995      -5.37882620E-11
  -2.75000000      -2.13196960E-11
  -2.70000005       2.99676048E-11
  -2.65000010       8.82286744E-11
  -2.59999990       1.35148670E-10
  -2.54999995       1.50498780E-10
  -2.50000000       1.18856952E-10
  -2.45000005       3.66796871E-11
  -2.40000010      -8.27791100E-11
  -2.34999990      -2.09162923E-10
  -2.29999995      -3.00801828E-10
  -2.25000000      -3.16256993E-10
  -2.20000005      -2.29064601E-10
  -2.15000010      -4.12300367E-11
  -2.09999990       2.09750495E-10
  -2.04999995       4.54620674E-10
  -2.00000000       6.08358197E-10
  -1.95000005       5.95889615E-10
  -1.89999998       3.80809301E-10
  -1.85000002      -1.24019892E-11
  -1.79999995      -4.92184793E-10
  -1.75000000      -9.15831411E-10
  -1.70000005      -1.12715270E-09
  -1.64999998      -1.00760977E-09
  -1.60000002      -5.25884003E-10
  -1.54999995       2.32028355E-10
  -1.50000000       1.06719755E-09
  -1.45000005       1.71264281E-09
  -1.39999998       1.91160487E-09
  -1.35000002       1.50864754E-09
  -1.29999995       5.24079335E-10
  -1.25000000      -8.18066559E-10
  -1.20000005      -2.12786899E-09
  -1.14999998      -2.95303604E-09
  -1.10000002      -2.92451774E-09
  -1.04999995      -1.90090454E-09
  -1.00000000      -6.01682315E-11
 -0.949999988       2.10394124E-09
 -0.899999976       3.89773147E-09
 -0.850000024       4.63561278E-09
 -0.800000012       3.88352550E-09
 -0.750000000       1.65747926E-09
 -0.699999988      -1.50205015E-09
 -0.649999976      -4.62938798E-09
 -0.600000024      -6.60295907E-09
 -0.550000012      -6.51920962E-09
 -0.500000000      -4.05602307E-09
 -0.449999988       3.06907666E-10
 -0.400000006       5.31620481E-09
 -0.349999994       9.25677401E-09
 -0.300000012       1.04873124E-08
 -0.250000000       8.04760791E-09
 -0.200000003       2.13233853E-09
 -0.150000006      -5.76338222E-09
 -0.100000001      -1.31391991E-08
  -5.00000007E-02  -1.72004082E-08
   5.55111512E-16  -1.58063180E-08
   5.00000007E-02  -8.36082314E-09
  0.100000001       3.68259578E-09
  0.150000006       1.69508976E-08
  0.200000003       2.69852709E-08
  0.250000000       2.96106446E-08
  0.300000012       2.24542820E-08
  0.349999994       6.10671869E-09
  0.400000006      -1.55441793E-08
  0.449999988      -3.60667869E-08
  0.500000000      -4.82528080E-08
  0.550000012      -4.64587586E-08
  0.600000024      -2.88099997E-08
  0.649999976       1.51481061E-09
  0.699999988       3.65121018E-08
  0.750000000       6.52638121E-08
  0.800000012       7.71494229E-08
  0.850000024       6.54739125E-08
  0.899999976       3.03455607E-08
  0.949999988      -2.02873274E-08
   1.00000000      -7.20737603E-08
   1.04999995      -1.08062615E-07
   1.10000002      -1.13947500E-07
   1.14999998      -8.32104021E-08
   1.20000005      -2.04315675E-08
   1.25000000       5.85996141E-08
   1.29999995       1.30461544E-07
   1.35000002       1.70693383E-07
   1.39999998       1.61639619E-07
   1.45000005       9.91316753E-08
   1.50000000      -4.34027880E-09
   1.54999995      -1.21457035E-07
   1.60000002      -2.16938290E-07
   1.64999998      -2.57837485E-07
   1.70000005      -2.24337285E-07
   1.75000000      -1.17610661E-07
   1.79999995       3.81274994E-08
   1.85000002       2.00688049E-07
   1.89999998       3.21237280E-07
   1.95000005       3.58912104E-07
   2.00000000       2.94372740E-07
   2.04999995       1.37853078E-07
   2.09999990      -7.13875465E-08
   2.15000010      -2.74821957E-07
   2.20000005      -4.11316250E-07
   2.25000000      -4.35953694E-07
   2.29999995      -3.35176509E-07
   2.34999990      -1.33104962E-07
   2.40000010       1.13660072E-07
   2.45000005       3.31917050E-07
   2.50000000       4.54052440E-07
   2.54999995       4.39785481E-07
   2.59999990       2.90376079E-07
   2.65000010       5.01821447E-08
   2.70000005      -2.05729904E-07
   2.75000000      -3.94689806E-07
   2.79999995      -4.53237931E-07
   2.84999990      -3.58946807E-07
   2.90000010      -1.39656279E-07
   2.95000005       1.33718672E-07
   3.00000000       3.69329427E-07
   3.04999995       4.84812915E-07
   3.09999990       4.36038079E-07
   3.15000010       2.34138682E-07
   3.20000005      -5.58299540E-08
   3.25000000      -3.35319868E-07
   3.29999995      -5.05850210E-07
   3.34999990      -5.04637399E-07
   3.40000010      -3.29616569E-07
   3.45000005      -4.39201315E-08
   3.50000000       2.43578427E-07
   3.54999995       4.16669820E-07
   3.59999990       3.96760868E-07
   3.65000010       1.78257395E-07
   3.70000005      -1.60033068E-07
   3.75000000      -4.74778517E-07
   3.79999995      -6.05985861E-07
   3.84999990      -4.38846030E-07
   3.90000010       4.14764685E-08
   3.95000005       7.23555559E-07
   4.00000000       1.38617474E-06
   4.05000019       1.75858156E-06
   4.09999990       1.61011815E-06
   4.15000010       8.42268832E-07
   4.19999981      -4.48782203E-07
   4.25000000      -1.96564633E-06
   4.30000019      -3.27066709E-06
   4.34999990      -3.90454989E-06
   4.40000010      -3.53215592E-06
   4.44999981      -2.07155290E-06
   4.50000000       2.38273046E-07
   4.55000019       2.86171007E-06
   4.59999990       5.08782705E-06
   4.65000010       6.22318703E-06
   4.69999981       5.80466622E-06
   4.75000000       3.76814660E-06
   4.80000019       5.15314639E-07
   4.84999990      -3.15387388E-06
   4.90000010      -6.23714095E-06
   4.94999981      -7.80777464E-06
   5.00000000      -7.29780140E-06
   5.05000019      -4.70044233E-06
   5.09999990      -6.22381606E-07
   5.15000010       3.84405121E-06
   5.19999981       7.40620226E-06
   5.25000000       8.94113418E-06
   5.30000019       7.84545773E-06
   5.34999990       4.25740154E-06
   5.40000010      -9.26322741E-07
   5.44999981      -6.26009432E-06
   5.50000000      -1.01395517E-05
   5.55000019      -1.12684402E-05
   5.59999990      -9.06750120E-06
   5.65000010      -3.89883780E-06
   5.69999981       2.97383031E-06
   5.75000000       9.69438406E-06
   5.80000019       1.43178549E-05
   5.84999990       1.53704623E-05
   5.90000010       1.23035170E-05
   5.94999981       5.70145221E-06
   6.00000000      -2.82962696E-06
   6.05000019      -1.10747887E-05
   6.09999990      -1.68159440E-05
   6.15000010      -1.84597939E-05
   6.19999981      -1.55043363E-05
   6.25000000      -8.70179520E-06
   6.30000019       1.38089476E-07
   6.34999990       8.65467609E-06
   6.40000010       1.46089469E-05
   6.44999981       1.65247311E-05
   6.50000000       1.41067176E-05
   6.55000019       8.30735553E-06
   6.59999990       1.01962632E-06
   6.65000010      -5.51316862E-06
   6.69999981      -9.39083657E-06
   6.75000000      -9.63869388E-06
   6.80000019      -6.49629101E-06
   6.84999990      -1.31949173E-06
   6.90000010       3.87629188E-06
   6.94999981       7.08929019E-06
   7.00000000       7.00676765E-06
   7.05000019       3.46340539E-06
   7.09999990      -2.47130924E-06
   7.15000010      -8.81409960E-06
   7.19999981      -1.33029944E-05
   7.25000000      -1.41471228E-05
   7.30000019      -1.06485068E-05
   7.34999990      -3.48735875E-06
   7.40000010       5.43431270E-06
   7.44999981       1.35549599E-05
   7.50000000       1.84516921E-05
   7.55000019       1.86214129E-05
   7.59999990       1.39887052E-05
   7.65000010       5.96508880E-06
   7.69999981      -2.97449265E-06
   7.75000000      -1.00743982E-05
   7.80000019      -1.31939523E-05
   7.84999990      -1.15236826E-05
   7.90000010      -5.87878321E-06
   7.94999981       1.54194640E-06
   8.00000000       7.86941928E-06
   8.05000019       1.05271274E-05
   8.10000038       8.12824783E-06
   8.14999962       1.00078216E-06
   8.19999981      -8.85273039E-06
   8.25000000      -1.83708908E-05
   8.30000019      -2.44383828E-05
   8.35000038      -2.49507648E-05
   8.39999962      -1.95709908E-05
   8.44999981      -9.89450746E-06
   8.50000000       1.07242545E-06
   8.55000019       9.98325049E-06
   8.60000038       1.44295072E-05
   8.64999962       1.39852573E-05
   8.69999981       1.06184070E-05
   8.75000000       8.25372626E-06
   8.80000019       1.15466264E-05
   8.85000038       2.42069382E-05
   8.89999962       4.74045810E-05
   8.94999981       7.88217440E-05
   9.00000000       1.12763635E-04
   9.05000019       1.41434939E-04
   9.10000038       1.57117116E-04
   9.14999962       1.54657770E-04
   9.19999981       1.33515234E-04
   9.25000000       9.86584782E-05
   9.30000019       5.99058440E-05
   9.35000038       2.97272200E-05
   9.39999962       2.00085578E-05
   9.44999981       3.86410902E-05
   9.50000000       8.69289725E-05
   9.55000019       1.58650437E-04
   9.60000038       2.41185044E-04
   9.64999962       3.18542763E-04
   9.69999981       3.75562231E-04
   9.75000000       4.02156060E-04
   9.80000019       3.96398158E-04
   9.85000038       3.65514396E-04
   9.89999962       3.24390596E-04
   9.94999981       2.91907985E-04
   10.0000000       2.86049210E-04
   10.0500002       3.19108163E-04
   10.1000004       3.94350995E-04
   10.1499996       5.05102740E-04
   10.1999998       6.36565674E-04
   10.2500000       7.69901962E-04
   10.3000002       8.87456816E-04
   10.3500004       9.77653544E-04
   10.3999996       1.03817426E-03
   10.4499998       1.07652287E-03
   10.5000000       1.10782427E-03
   10.5500002       1.15051866E-03
   10.6000004       1.22123025E-03
   10.6499996       1.33032550E-03
   10.6999998       1.47946889E-03
   10.7500000       1.66187610E-03
   10.8000002       1.86514447E-03
   10.8500004       2.07575457E-03
   10.8999996       2.28382181E-03
   10.9499998       2.48659868E-03
   11.0000000       2.68962071E-03
   11.0500002       2.90512014E-03
   11.1000004       3.14820232E-03
   11.1499996       3.43200844E-03
   11.1999998       3.76342773E-03
   11.2500000       4.14080359E-03
   11.3000002       4.55445983E-03
   11.3500004       4.99000773E-03
   11.3999996       5.43348584E-03
   11.4499998       5.87675301E-03
   11.5000000       6.32141531E-03
   11.5500002       6.77992916E-03
   11.6000004       7.27336854E-03
   11.6499996       7.82635901E-03
   11.6999998       8.46060831E-03
   11.7500000       9.18893702E-03
   11.8000002       1.00117298E-02
   11.8500004       1.09169986E-02
   11.8999996       1.18842646E-02
   11.9499998       1.28913056E-02
   12.0000000       1.39218848E-02
   12.0500002       1.49722155E-02
   12.1000004       1.60541926E-02
   12.1499996       1.71942711E-02
   12.1999998       1.84281301E-02
   12.2500000       1.97924878E-02
   12.3000002       2.13162899E-02
   12.3500004       2.30137911E-02
   12.3999996       2.48815194E-02
   12.4499998       2.69001145E-02
   12.5000000       2.90406216E-02
   12.5500002       3.12736109E-02
   12.6000004       3.35786417E-02
   12.6499996       3.59515063E-02
   12.6999998       3.84072885E-02
   12.7500000       4.09784503E-02
   12.8000002       4.37084883E-02
   12.8500004       4.66430523E-02
   12.8999996       4.98208664E-02
   12.9499998       5.32669723E-02
   13.0000000       5.69899492E-02
   13.0500002       6.09836653E-02
   13.1000004       6.52328059E-02
   13.1499996       6.97203949E-02
   13.1999998       7.44350776E-02
   13.2500000       7.93762058E-02
   13.3000002       8.45554098E-02
   13.3500004       8.99946988E-02
   13.3999996       9.57219973E-02
   13.4499998      0.101765789    
   13.5000000      0.108150654    
   13.5500002      0.114895135    
   13.6000004      0.122012287    
   13.6499996      0.129512399    
   13.6999998      0.137406632    
   13.7500000      0.145709917    
   13.8000002      0.154441983    
   13.8500004      0.163625821    
   13.8999996      0.173284292    
   13.9499998      0.183435798    
   14.0000000      0.194091365    
   14.0500002      0.205253869    
   14.1000004      0.216920748    
   14.1499996      0.229089409    
   14.1999998      0.241764143    
   14.2500000      0.254961997    
   14.3000002      0.268715948    
   14.3500004      0.283073455    
   14.3999996      0.298090607    
   14.4499998      0.313822597    
   14.5000000      0.330313534    
   14.5500002      0.347588092    
   14.6000004      0.365647882    
   14.6499996      0.384473741    
   14.6999998      0.404033780    
   14.7500000      0.424295425    
   14.8000002      0.445238233    
   14.8500004      0.466863602    
   14.8999996      0.489199340    
   14.9499998      0.512296915    
   15.0000000      0.536222458    
   15.0500002      0.561044037    
   15.1000004      0.586818099    
   15.1499996      0.613579273    
   15.1999998      0.641336501    
   15.2500000      0.670075417    
   15.3000002      0.699767292    
   15.3500004      0.730381131    
   15.3999996      0.761895657    
   15.4499998      0.794307709    
   15.5000000      0.827634037    
   15.5500002      0.861908197    
   15.6000004      0.897171140    
   15.6499996      0.933460295    
   15.6999998      0.970799983    
   15.7500000       1.00919592    
   15.8000002       1.04863584    
   15.8500004       1.08909452    
   15.8999996       1.13054359    
   15.9499998       1.17296004    
   16.0000000       1.21633399    
   16.0499992       1.26067054    
   16.1000004       1.30598593    
   16.1499996       1.35230124    
   16.2000008       1.39963245    
   16.2500000       1.44798267    
   16.2999992       1.49733865    
   16.3500004       1.54767144    
   16.3999996       1.59894264    
   16.4500008       1.65111232    
   16.5000000       1.70414829    
   16.5499992       1.75803053    
   16.6000004       1.81275308    
   16.6499996       1.86831927    
   16.7000008       1.92473388    
   16.7500000       1.98199320    
   16.7999992       2.04007912    
   16.8500004       2.09895587    
   16.8999996       2.15857148    
   16.9500008       2.21886563    
   17.0000000       2.27977967    
   17.0499992       2.34126568    
   17.1000004       2.40329051    
   17.1499996       2.46583676    
   17.2000008       2.52889633    
   17.2500000       2.59246063    
   17.2999992       2.65651178    
   17.3500004       2.72101235    
   17.3999996       2.78590608    
   17.4500008       2.85111904    
   17.5000000       2.91657209    
   17.5499992       2.98219180    
   17.6000004       3.04792261    
   17.6499996       3.11373281    
   17.7000008       3.17961454    
   17.7500000       3.24557519    
   17.7999992       3.31162262    
   17.8500004       3.37775064    
   17.8999996       3.44392514    
   17.9500008       3.51007819    
   18.0000000       3.57611108    
   18.0499992       3.64190626    
   18.1000004       3.70734596    
   18.1499996       3.77233052    
   18.2000008       3.83679414    
   18.2500000       3.90071297    
   18.2999992       3.96410108    
   18.3500004       4.02699947    
   18.3999996       4.08945417    
   18.4500008       4.15149736    
   18.5000000       4.21312857    
   18.5499992       4.27430677    
   18.6000004       4.33495045    
   18.6499996       4.39495039    
   18.7000008       4.45418596    
   18.7500000       4.51254511    
   18.7999992       4.56994200    
   18.8500004       4.62632656    
   18.8999996       4.68168783    
   18.9500008       4.73604631    
   19.0000000       4.78944254    
   19.0499992       4.84192133    
   19.1000004       4.89351940    
   19.1499996       4.94425631    
   19.2000008       4.99412966    
   19.2500000       5.04311752    
   19.2999992       5.09118414    
   19.3500004       5.13828087    
   19.3999996       5.18435764    
   19.4500008       5.22936583    
   19.5000000       5.27325916    
   19.5499992       5.31600237    
   19.6000004       5.35756922    
   19.6499996       5.39795017    
   19.7000008       5.43715620    
   19.7500000       5.47521782    
   19.7999992       5.51218748    
   19.8500004       5.54813290    
   19.8999996       5.58312559    
   19.9500008       5.61723089    
   20.0000000       5.65049410    
   20.0499992       5.68292809    
   20.1000004       5.71451426    
   20.1499996       5.74520350    
   20.2000008       5.77493238    
   20.2500000       5.80363798    
   20.2999992       5.83128023    
   20.3500004       5.85785341    
   20.3999996       5.88339758    
   20.4500008       5.90799236    
   20.5000000       5.93174601    
   20.5499992       5.95477533    
   20.6000004       5.97718954    
   20.6499996       5.99906588    
   20.7000008       6.02044535    
   20.7500000       6.04132986    
   20.7999992       6.06169176    
   20.8500004       6.08148670    
   20.8999996       6.10067463    
   20.9500008       6.11923218    
   21.0000000       6.13716316    
   21.0499992       6.15450191    
   21.1000004       6.17130804    
   21.1499996       6.18765926    
   21.2000008       6.20363712    
   21.2500000       6.21931934    
   21.2999992       6.23476982    
   21.3500004       6.25003624    
   21.3999996       6.26515055    
   21.4500008       6.28013039    
   21.5000000       6.29498672    
   21.5499992       6.30972815    
   21.6000004       6.32436514    
   21.6499996       6.33891439    
   21.7000008       6.35339689    
   21.7500000       6.36783791    
   21.7999992       6.38226223    
   21.8500004       6.39669466    
   21.8999996       6.41115761    
   21.9500008       6.42567158    
   22.0000000       6.44025469    
   22.0499992       6.45493126    
   22.1000004       6.46972895    
   22.1499996       6.48468733    
   22.2000008       6.49985361    
   22.2500000       6.51527834    
   22.2999992       6.53101254    
   22.3500004       6.54709482    
   22.3999996       6.56354666    
   22.4500008       6.58036518    
   22.5000000       6.59752417    
   22.5499992       6.61498022    
   22.6000004       6.63268280    
   22.6499996       6.65059137    
   22.7000008       6.66868687    
   22.7500000       6.68698263    
   22.7999992       6.70552444    
   22.8500004       6.72438526    
   22.8999996       6.74364948    
   22.9500008       6.76339817    
   23.0000000       6.78368998    
   23.0499992       6.80455160    
   23.1000004       6.82597303    
   23.1499996       6.84791088    
   23.2000008       6.87030172    
   23.2500000       6.89307451    
   23.2999992       6.91616678    
   23.3500004       6.93953514    
   23.3999996       6.96316099    
   23.4500008       6.98704958    
   23.5000000       7.01122761    
   23.5499992       7.03573561    
   23.6000004       7.06061935    
   23.6499996       7.08592510    
   23.7000008       7.11169147    
   23.7500000       7.13794804    
   23.7999992       7.16470766    
   23.8500004       7.19196463    
   23.8999996       7.21969414    
   23.9500008       7.24785376    
   24.0000000       7.27638721    
   24.0499992       7.30523348    
   24.1000004       7.33433771    
   24.1499996       7.36365986    
   24.2000008       7.39318323    
   24.2500000       7.42291975    
   24.2999992       7.45290232    
   24.3500004       7.48317909    
   24.3999996       7.51379871    
   24.4500008       7.54479933    
   24.5000000       7.57620049    
   24.5499992       7.60799408    
   24.6000004       7.64015198    
   24.6499996       7.67262983    
   24.7000008       7.70537567    
   24.7500000       7.73833895    
   24.7999992       7.77147865    
   24.8500004       7.80476379    
   24.8999996       7.83817816    
   24.9500008       7.87171602    
   25.0000000       7.90538502    
   25.0499992       7.93920326    
   25.1000004       7.97319937    
   25.1499996       8.00740719    
   25.2000008       8.04186058    
   25.2500000       8.07658386    
   25.2999992       8.11158466    
   25.3500004       8.14684200    
   25.3999996       8.18230724    
   25.4500008       8.21790791    
   25.5000000       8.25356007    
   25.5499992       8.28918457    
   25.6000004       8.32472706    
   25.6499996       8.36016941    
   25.7000008       8.39553452    
   25.7500000       8.43088150    
   25.7999992       8.46628475    
   25.8500004       8.50181293    
   25.8999996       8.53751087    
   25.9500008       8.57338333    
   26.0000000       8.60939503    
   26.0499992       8.64548397    
   26.1000004       8.68157005    
   26.1499996       8.71758175    
   26.2000008       8.75346279    
   26.2500000       8.78918743    
   26.2999992       8.82474518    
   26.3500004       8.86013794    
   26.3999996       8.89536476    
   26.4500008       8.93041801    
   26.5000000       8.96527576    
   26.5499992       8.99991417    
   26.6000004       9.03431606    
   26.6499996       9.06848145    
   26.7000008       9.10243130    
   26.7500000       9.13620090    
   26.7999992       9.16983223    
   26.8500004       9.20335102    
   26.8999996       9.23675156    
   26.9500008       9.26998711    
   27.0000000       9.30297565    
   27.0499992       9.33560753    
   27.1000004       9.36777020    
   27.1499996       9.39936829    
   27.2000008       9.43034363    
   27.2500000       9.46067715    
   27.2999992       9.49038601    
   27.3500004       9.51951694    
   27.3999996       9.54812336    
   27.4500008       9.57625103    
   27.5000000       9.60392857    
   27.5499992       9.63115978    
   27.6000004       9.65793419    
   27.6499996       9.68421841    
   27.7000008       9.70997334    
   27.7500000       9.73514557    
   27.7999992       9.75967216    
   27.8500004       9.78348064    
   27.8999996       9.80648994    
   27.9500008       9.82861519    
   28.0000000       9.84978008    
   28.0499992       9.86992931    
   28.1000004       9.88903999    
   28.1499996       9.90712738    
   28.2000008       9.92424202    
   28.2500000       9.94045353    
   28.2999992       9.95584011    
   28.3500004       9.97046185    
   28.3999996       9.98434830    
   28.4500008       9.99748898    
   28.5000000       10.0098314    
   28.5499992       10.0212955    
   28.6000004       10.0317869    
   28.6499996       10.0412111    
   28.7000008       10.0494890    
   28.7500000       10.0565634    
   28.7999992       10.0624046    
   28.8500004       10.0670080    
   28.8999996       10.0703936    
   28.9500008       10.0726023    
   29.0000000       10.0736914    
   29.0499992       10.0737352    
   29.1000004       10.0728092    
   29.1499996       10.0709915    
   29.2000008       10.0683470    
   29.2500000       10.0649109    
   29.2999992       10.0606937    
   29.3500004       10.0556698    
   29.3999996       10.0497856    
   29.4500008       10.0429716    
   29.5000000       10.0351648    
   29.5499992       10.0263147    
   29.6000004       10.0164099    
   29.6499996       10.0054712    
   29.7000008       9.99356461    
   29.7500000       9.98078632    
   29.7999992       9.96725368    
   29.8500004       9.95309639    
   29.8999996       9.93844604    
   29.9500008       9.92342663    
   30.0000000       9.90814972    
   30.0499992       9.89271069    
   30.1000004       9.87718105    
   30.1499996       9.86160374    
   30.2000008       9.84599495    
   30.2500000       9.83033943    
   30.2999992       9.81460571    
   30.3500004       9.79875755    
   30.3999996       9.78277588    
   30.4500008       9.76667976    
   30.5000000       9.75053787    
   30.5499992       9.73447895    
   30.6000004       9.71868038    
   30.6499996       9.70335674    
   30.7000008       9.68872738    
   30.7500000       9.67500019    
   30.7999992       9.66233921    
   30.8500004       9.65085888    
   30.8999996       9.64061737    
   30.9500008       9.63163185    
   31.0000000       9.62388897    
   31.0499992       9.61736965    
   31.1000004       9.61206150    
   31.1499996       9.60797501    
   31.2000008       9.60515022    
   31.2500000       9.60366249    
   31.2999992       9.60361004    
   31.3500004       9.60511875    
   31.3999996       9.60833263    
   31.4500008       9.61340332    
   31.5000000       9.62048435    
   31.5499992       9.62971878    
   31.6000004       9.64123058    
   31.6499996       9.65511227    
   31.7000008       9.67142105    
   31.7500000       9.69017887    
   31.7999992       9.71136665    
   31.8500004       9.73494053    
   31.8999996       9.76084232    
   31.9500008       9.78900814    
   32.0000000       9.81938744    
   32.0499992       9.85195351    
   32.0999985       9.88670635    
   32.1500015       9.92367649    
   32.2000008       9.96292686    
   32.2500000       10.0045366    
   32.2999992       10.0485964    
   32.3499985       10.0951891    
   32.4000015       10.1443729    
   32.4500008       10.1961660    
   32.5000000       10.2505341    
   32.5499992       10.3073854    
   32.5999985       10.3665810    
   32.6500015       10.4279404    
   32.7000008       10.4912682    
   32.7500000       10.5563774    
   32.7999992       10.6231070    