  -10.0000000       0.00000000    
  -9.94999981       0.00000000    
  -9.89999962       0.00000000    
  -9.85000038       0.00000000    
  -9.80000019       0.00000000    
  -9.75000000       0.00000000    
  -9.69999981       0.00000000    
  -9.64999962       0.00000000    
  -9.60000038       0.00000000    
  -9.55000019      -1.43149361E-21
  -9.50000000      -1.98625808E-20
  -9.44999981      -1.35680743E-19
  -9.39999962      -5.90896160E-19
  -9.35000038      -1.73745751E-18
  -9.30000019      -3.05487230E-18
  -9.25000000       3.69519312E-19
  -9.19999981       2.52651002E-17
  -9.14999962       1.08584813E-16
  -9.10000038       3.02406406E-16
  -9.05000019       6.23838707E-16
  -9.00000000       9.21347383E-16
  -8.94999981       6.55329380E-16
  -8.89999962      -1.28982874E-15
  -8.85000038      -6.43951885E-15
  -8.80000019      -1.56947971E-14
  -8.75000000      -2.69936695E-14
  -8.69999981      -3.19329185E-14
  -8.64999962      -1.31692803E-14
  -8.60000038       5.34957278E-14
  -8.55000019       1.87111286E-13
  -8.50000000       3.76113393E-13
  -8.44999981       5.42990728E-13
  -8.39999962       5.15813358E-13
  -8.35000038       3.87052722E-14
  -8.30000019      -1.13895742E-12
  -8.25000000      -3.06921480E-12
  -8.19999981      -5.33162316E-12
  -8.14999962      -6.78527720E-12
  -8.10000038      -5.54451710E-12
  -8.05000019       5.79683979E-13
  -8.00000000       1.30061708E-11
  -7.94999981       3.07629720E-11
  -7.90000010       4.88212491E-11
  -7.84999990       5.73423947E-11
  -7.80000019       4.30468508E-11
  -7.75000000      -6.35363897E-12
  -7.69999981      -9.47321319E-11
  -7.65000010      -2.08921005E-10
  -7.59999990      -3.12624288E-10
  -7.55000019      -3.47863988E-10
  -7.50000000      -2.48383564E-10
  -7.44999981       3.38393237E-11
  -7.40000010       4.93732721E-10
  -7.34999990       1.04177733E-09
  -7.30000019       1.49334967E-09
  -7.25000000       1.59585301E-09
  -7.19999981       1.10226472E-09
  -7.15000010      -1.17422641E-10
  -7.09999990      -1.95743488E-09
  -7.05000019      -3.99957889E-09
  -7.00000000      -5.53344837E-09
  -6.94999981      -5.71094860E-09
  -6.90000010      -3.83047105E-09
  -6.84999990       3.12815190E-10
  -6.80000019       6.13028250E-09
  -6.75000000       1.21436550E-08
  -6.69999981       1.62104055E-08
  -6.65000010       1.61035114E-08
  -6.59999990       1.03421014E-08
  -6.55000019      -9.73119252E-10
  -6.50000000      -1.56556137E-08
  -6.44999981      -2.95754621E-08
  -6.40000010      -3.76045826E-08
  -6.34999990      -3.52437759E-08
  -6.30000019      -2.04954951E-08
  -6.25000000       4.68596406E-09
  -6.19999981       3.40614399E-08
  -6.15000010       5.83340096E-08
  -6.09999990       6.78739269E-08
  -6.05000019       5.62604683E-08
  -6.00000000       2.34526816E-08
  -5.94999981      -2.27527224E-08
  -5.90000010      -6.79644074E-08
  -5.84999990      -9.52840224E-08
  -5.80000019      -9.12756946E-08
  -5.75000000      -5.18789953E-08
  -5.69999981       1.40845584E-08
  -5.65000010       8.57116262E-08
  -5.59999990       1.35706117E-07
  -5.55000019       1.39708774E-07
  -5.50000000       8.63174563E-08
  -5.44999981      -1.59971858E-08
  -5.40000010      -1.38353428E-07
  -5.34999990      -2.38631060E-07
  -5.30000019      -2.74870018E-07
  -5.25000000      -2.20715791E-07
  -5.19999981      -7.72892150E-08
  -5.15000010       1.23527059E-07
  -5.09999990       3.26657982E-07
  -5.05000019       4.70498406E-07
  -5.00000000       5.07083428E-07
  -4.94999981       4.18236482E-07
  -4.90000010       2.21192309E-07
  -4.84999990      -3.88425647E-08
  -4.80000019      -3.06203077E-07
  -4.75000000      -5.34573701E-07
  -4.69999981      -6.99623172E-07
  -4.65000010      -7.97728489E-07
  -4.59999990      -8.30676527E-07
  -4.55000019      -7.84227552E-07
  -4.50000000      -6.14066721E-07
  -4.44999981      -2.52490821E-07
  -4.40000010       3.58271762E-07
  -4.34999990       1.21323410E-06
  -4.30000019       2.19318099E-06
  -4.25000000       3.04336731E-06
  -4.19999981       3.40772249E-06
  -4.15000010       2.92717050E-06
  -4.09999990       1.38430994E-06
  -4.05000019      -1.15030912E-06
  -4.00000000      -4.23103302E-06
  -3.95000005      -7.06475657E-06
  -3.90000010      -8.67936615E-06
  -3.84999990      -8.21046342E-06
  -3.79999995      -5.23156996E-06
  -3.75000000      -1.68935923E-08
  -3.70000005       6.37603671E-06
  -3.65000010       1.22758574E-05
  -3.59999990       1.58142757E-05
  -3.54999995       1.54951249E-05
  -3.50000000       1.07472069E-05
  -3.45000005       2.26761267E-06
  -3.40000010      -7.99725694E-06
  -3.34999990      -1.72835607E-05
  -3.29999995      -2.27697274E-05
  -3.25000000      -2.24538271E-05
  -3.20000005      -1.58707990E-05
  -3.15000010      -4.39304631E-06
  -3.09999990       9.02854754E-06
  -3.04999995       2.06508357E-05
  -3.00000000       2.70381333E-05
  -2.95000005       2.61382920E-05
  -2.90000010       1.79813105E-05
  -2.84999990       4.75089882E-06
  -2.79999995      -9.82330130E-06
  -2.75000000      -2.15791006E-05
  -2.70000005      -2.71904719E-05
  -2.65000010      -2.51794245E-05
  -2.59999990      -1.63382847E-05
  -2.54999995      -3.42668204E-06
  -2.50000000       9.74561044E-06
  -2.45000005       1.95301382E-05
  -2.40000010       2.35315456E-05
  -2.34999990       2.12209216E-05
  -2.29999995       1.38955547E-05
  -2.25000000       4.05218316E-06
  -2.20000005      -5.55126417E-06
  -2.15000010      -1.27762687E-05
  -2.09999990      -1.66112804E-05
  -2.04999995      -1.71673582E-05
  -2.00000000      -1.52465100E-05
  -1.95000005      -1.17428253E-05
  -1.89999998      -7.18875390E-06
  -1.85000002      -1.66603218E-06
  -1.79999995       4.89560080E-06
  -1.75000000       1.22186375E-05
  -1.70000005       1.92874177E-05
  -1.64999998       2.43498835E-05
  -1.60000002       2.54167862E-05
  -1.54999995       2.11090592E-05
  -1.50000000       1.14886734E-05
  -1.45000005      -1.55746204E-06
  -1.39999998      -1.46744569E-05
  -1.35000002      -2.41281195E-05
  -1.29999995      -2.72652869E-05
  -1.25000000      -2.37440508E-05
  -1.20000005      -1.59291430E-05
  -1.14999998      -8.12285998E-06
  -1.10000002      -4.77441881E-06
  -1.04999995      -8.29983401E-06
  -1.00000000      -1.74347333E-05
 -0.949999988      -2.69741195E-05
 -0.899999976      -2.92983859E-05
 -0.850000024      -1.73787175E-05
 -0.800000012       1.17401805E-05
 -0.750000000       5.43711212E-05
 -0.699999988       9.97939133E-05
 -0.649999976       1.32641013E-04
 -0.600000024       1.37643088E-04
 -0.550000012       1.05316351E-04
 -0.500000000       3.65837623E-05
 -0.449999988      -5.55695005E-05
 -0.400000006      -1.48457155E-04
 -0.349999994      -2.15768872E-04
 -0.300000012      -2.35669562E-04
 -0.250000000      -1.98310954E-04
 -0.200000003      -1.10095571E-04
 -0.150000006       7.05834054E-06
 -0.100000001       1.21589779E-04
  -5.00000007E-02   2.01667644E-04
   5.55111512E-16   2.25115320E-04
   5.00000007E-02   1.86595906E-04
  0.100000001       9.95631490E-05
  0.150000006      -7.81999915E-06
  0.200000003      -1.01564881E-04
  0.250000000      -1.52663604E-04
  0.300000012      -1.46260325E-04
  0.349999994      -8.61709777E-05
  0.400000006       6.68615940E-06
  0.449999988       1.01327169E-04
  0.500000000       1.66771060E-04
  0.550000012       1.81766110E-04
  0.600000024       1.41040684E-04
  0.649999976       5.62402856E-05
  0.699999988      -4.84368102E-05
  0.750000000      -1.44161764E-04
  0.800000012      -2.06193217E-04
  0.850000024      -2.20625836E-04
  0.899999976      -1.87324404E-04
  0.949999988      -1.18628632E-04
   1.00000000      -3.47906389E-05
   1.04999995       4.20442811E-05
   1.10000002       9.34016352E-05
   1.14999998       1.08219421E-04
   1.20000005       8.42580703E-05
   1.25000000       2.74385693E-05
   1.29999995      -5.02268158E-05
   1.35000002      -1.33453359E-04
   1.39999998      -2.06837925E-04
   1.45000005      -2.58135551E-04
   1.50000000      -2.81398912E-04
   1.54999995      -2.79417291E-04
   1.60000002      -2.64545874E-04
   1.64999998      -2.56956962E-04
   1.70000005      -2.79832719E-04
   1.75000000      -3.52062227E-04
   1.79999995      -4.80282790E-04
   1.85000002      -6.53059746E-04
   1.89999998      -8.40056746E-04
   1.95000005      -9.97902127E-04
   2.00000000      -1.08228787E-03
   2.04999995      -1.06331089E-03
   2.09999990      -9.39164078E-04
   2.15000010      -7.42904318E-04
   2.20000005      -5.38612599E-04
   2.25000000      -4.06509876E-04
   2.29999995      -4.20510740E-04
   2.34999990      -6.24865468E-04
   2.40000010      -1.01767352E-03
   2.45000005      -1.54748675E-03
   2.50000000      -2.12527416E-03
   2.54999995      -2.64894287E-03
   2.59999990      -3.03315604E-03
   2.65000010      -3.23504256E-03
   2.70000005      -3.26743093E-03
   2.75000000      -3.19523783E-03
   2.79999995      -3.11621604E-03
   2.84999990      -3.13247647E-03
   2.90000010      -3.32213403E-03
   2.95000005      -3.72002809E-03
   3.00000000      -4.31296648E-03
   3.04999995      -5.04965289E-03
   3.09999990      -5.86043997E-03
   3.15000010      -6.67917216E-03
   3.20000005      -7.45961675E-03
   3.25000000      -8.18207953E-03
   3.29999995      -8.85029789E-03
   3.34999990      -9.48268175E-03
   3.40000010      -1.01036923E-02
   3.45000005      -1.07400268E-02
   3.50000000      -1.14228819E-02
   3.54999995      -1.21935625E-02
   3.59999990      -1.31071061E-02
   3.65000010      -1.42287277E-02
   3.70000005      -1.56210018E-02
   3.75000000      -1.73244234E-02
   3.79999995      -1.93384122E-02
   3.84999990      -2.16114987E-02
   3.90000010      -2.40475256E-02
   3.95000005      -2.65291985E-02
   4.00000000      -2.89534666E-02
   4.05000019      -3.12676243E-02
   4.09999990      -3.34931649E-02
   4.15000010      -3.57276015E-02
   4.19999981      -3.81216630E-02
   4.25000000      -4.08383757E-02
   4.30000019      -4.40073200E-02
   4.34999990      -4.76901680E-02
   4.40000010      -5.18698171E-02
   4.44999981      -5.64672612E-02
   4.50000000      -6.13801479E-02
   4.55000019      -6.65287897E-02
   4.59999990      -7.18925372E-02
   4.65000010      -7.75229558E-02
   4.69999981      -8.35290551E-02
   4.75000000      -9.00406018E-02
   4.80000019      -9.71639082E-02
   4.84999990     -0.104947388    
   4.90000010     -0.113370582    
   4.94999981     -0.122360975    
   5.00000000     -0.131832346    
   5.05000019     -0.141730100    
   5.09999990     -0.152066171    
   5.15000010     -0.162930548    
   5.19999981     -0.174475327    
   5.25000000     -0.186877713    
   5.30000019     -0.200295866    
   5.34999990     -0.214834258    
   5.40000010     -0.230529711    
   5.44999981     -0.247362196    
   5.50000000     -0.265283555    
   5.55000019     -0.284252644    
   5.59999990     -0.304262906    
   5.65000010     -0.325354367    
   5.69999981     -0.347608209    
   5.75000000     -0.371130377    
   5.80000019     -0.396033704    
   5.84999990     -0.422427297    
   5.90000010     -0.450416714    
   5.94999981     -0.480111271    
   6.00000000     -0.511631012    
   6.05000019     -0.545105875    
   6.09999990     -0.580662310    
   6.15000010     -0.618402481    
   6.19999981     -0.658384323    
   6.25000000     -0.700614810    
   6.30000019     -0.745064199    
   6.34999990     -0.791700363    
   6.40000010     -0.840534389    
   6.44999981     -0.891659737    
   6.50000000     -0.945268393    
   6.55000019      -1.00163519    
   6.59999990      -1.06107199    
   6.65000010      -1.12386584    
   6.69999981      -1.19022405    
   6.75000000      -1.26024580    
   6.80000019      -1.33393276    
   6.84999990      -1.41123521    
   6.90000010      -1.49211752    
   6.94999981      -1.57661664    
   7.00000000      -1.66487360    
   7.05000019      -1.75712454    
   7.09999990      -1.85365772    
   7.15000010      -1.95475328    
   7.19999981      -2.06063151    
   7.25000000      -2.17143178    
   7.30000019      -2.28722930    
   7.34999990      -2.40807915    
   7.40000010      -2.53407192    
   7.44999981      -2.66537094    
   7.50000000      -2.80221391    
   7.55000019      -2.94488049    
   7.59999990      -3.09363389    
   7.65000010      -3.24866915    
   7.69999981      -3.41008735    
   7.75000000      -3.57791328    
   7.80000019      -3.75215244    
   7.84999990      -3.93286276    
   7.90000010      -4.12021303    
   7.94999981      -4.31449747    
   8.00000000      -4.51609659    
   8.05000019      -4.72540331    
   8.10000038      -4.94273138    
   8.14999962      -5.16825342    
   8.19999981      -5.40199280    
   8.25000000      -5.64387703    
   8.30000019      -5.89383364    
   8.35000038      -6.15188789    
   8.39999962      -6.41822672    
   8.44999981      -6.69319201    
   8.50000000      -6.97721195    
   8.55000019      -7.27068567    
   8.60000038      -7.57387781    
   8.64999962      -7.88685894    
   8.69999981      -8.20952606    
   8.75000000      -8.54169559    
   8.80000019      -8.88324165    
   8.85000038      -9.23420429    
   8.89999962      -9.59484768    
   8.94999981      -9.96561527    
   9.00000000      -10.3470144    
   9.05000019      -10.7394571    
   9.10000038      -11.1431284    
   9.14999962      -11.5579433    
   9.19999981      -11.9835939    
   9.25000000      -12.4196978    
   9.30000019      -12.8659716    
   9.35000038      -13.3223772    
   9.39999962      -13.7891684    
   9.44999981      -14.2668247    
   9.50000000      -14.7558947    
   9.55000019      -15.2568016    
   9.60000038      -15.7696972    
   9.64999962      -16.2944164    
   9.69999981      -16.8305492    
   9.75000000      -17.3776131    
   9.80000019      -17.9352474    
   9.85000038      -18.5033474    
   9.89999962      -19.0821266    
   9.94999981      -19.6719990    
   10.0000000      -20.2734261    
   10.0500002      -20.8867111    
   10.1000004      -21.5118656    
   10.1499996      -22.1485786    
   10.1999998      -22.7963200    
   10.2500000      -23.4545231    
   10.3000002      -24.1227760    
   10.3500004      -24.8009472    
   10.3999996      -25.4891891    
   10.4499998      -26.1878471    
   10.5000000      -26.8972664    
   10.5500002      -27.6176186    
   10.6000004      -28.3487930    
   10.6499996      -29.0904160    
   10.6999998      -29.8419571    
   10.7500000      -30.6028938    
   10.8000002      -31.3728752    
   10.8500004      -32.1517944    
   10.8999996      -32.9397545    
   10.9499998      -33.7369308    
   11.0000000      -34.5434380    
   11.0500002      -35.3591805    
   11.1000004      -36.1838417    
   11.1499996      -37.0169258    
   11.1999998      -37.8579102    
   11.2500000      -38.7063980    
   11.3000002      -39.5621948    
   11.3500004      -40.4253006    
   11.3999996      -41.2958336    
   11.4499998      -42.1738663    
   11.5000000      -43.0592957    
   11.5500002      -43.9517975    
   11.6000004      -44.8508568    
   11.6499996      -45.7559242    
   11.6999998      -46.6665421    
   11.7500000      -47.5824814    
   11.8000002      -48.5037041    
   11.8500004      -49.4303093    
   11.8999996      -50.3623543    
   11.9499998      -51.2997017    
   12.0000000      -52.2419434    
   12.0500002      -53.1884460    
   12.1000004      -54.1385193    
   12.1499996      -55.0915985    
   12.1999998      -56.0474243    
   12.2500000      -57.0060501    
   12.3000002      -57.9677696    
   12.3500004      -58.9328842    
   12.3999996      -59.9014626    
   12.4499998      -60.8732109    
   12.5000000      -61.8474236    
   12.5500002      -62.8231544    
   12.6000004      -63.7994957    
   12.6499996      -64.7758255    
   12.6999998      -65.7519913    
   12.7500000      -66.7282944    
   12.8000002      -67.7052383    
   12.8500004      -68.6832504    
   12.8999996      -69.6623383    
   12.9499998      -70.6419601    
   13.0000000      -71.6210632    
   13.0500002      -72.5983658    
   13.1000004      -73.5727234    
   13.1499996      -74.5434952    
   13.1999998      -75.5106583    
   13.2500000      -76.4747543    
   13.3000002      -77.4365311    
   13.3500004      -78.3965454    
   13.3999996      -79.3547516    
   13.4499998      -80.3103943    
   13.5000000      -81.2620697    
   13.5500002      -82.2081223    
   13.6000004      -83.1470871    
   13.6499996      -84.0781021    
   13.6999998      -85.0010300    
   13.7500000      -85.9163437    
   13.8000002      -86.8247757    
   13.8500004      -87.7267685    
   13.8999996      -88.6221542    
   13.9499998      -89.5099792    
   14.0000000      -90.3886490    
   14.0500002      -91.2563705    
   14.1000004      -92.1115494    
   14.1499996      -92.9532089    
   14.1999998      -93.7810822    
   14.2500000      -94.5954056    
   14.3000002      -95.3965454    
   14.3500004      -96.1845245    
   14.3999996      -96.9586868    
   14.4499998      -97.7176285    
   14.5000000      -98.4594345    
   14.5500002      -99.1820602    
   14.6000004      -99.8838043    
   14.6499996      -100.563568    
   14.6999998      -101.220924    
   14.7500000      -101.855820    
   14.8000002      -102.468193    
   14.8500004      -103.057564    
   14.8999996      -103.622787    
   14.9499998      -104.162064    
   15.0000000      -104.673225    
   15.0500002      -105.154099    
   15.1000004      -105.602905    
   15.1499996      -106.018417    
   15.1999998      -106.399887    
   15.2500000      -106.746765    
   15.3000002      -107.058319    
   15.3500004      -107.333359    
   15.3999996      -107.570114    
   15.4499998      -107.766388    
   15.5000000      -107.919853    
   15.5500002      -108.028419    
   15.6000004      -108.090477    
   15.6499996      -108.104866    
   15.6999998      -108.070694    
   15.7500000      -107.987038    
   15.8000002      -107.852562    
   15.8500004      -107.665421    
   15.8999996      -107.423347    
   15.9499998      -107.123894    
   16.0000000      -106.764778    
   16.0499992      -106.344215    
   16.1000004      -105.860962    
   16.1499996      -105.314140    
   16.2000008      -104.702919    
   16.2500000      -104.026131    
   16.2999992      -103.282066    
   16.3500004      -102.468506    
   16.3999996      -101.582932    
   16.4500008      -100.623016    
   16.5000000      -99.5869370    
   16.5499992      -98.4736328    
   16.6000004      -97.2826614    
   16.6499996      -96.0138626    
   16.7000008      -94.6668854    
   16.7500000      -93.2408142    
   16.7999992      -91.7340164    
   16.8500004      -90.1443481    
   16.8999996      -88.4696045    
   16.9500008      -86.7080078    
   17.0000000      -84.8586502    
   17.0499992      -82.9215775    
   17.1000004      -80.8975601    
   17.1499996      -78.7875595    
   17.2000008      -76.5921555    
   17.2500000      -74.3112106    
   17.2999992      -71.9437866    
   17.3500004      -69.4884644    
   17.3999996      -66.9439545    
   17.4500008      -64.3096695    
   17.5000000      -61.5861168    
   17.5499992      -58.7749062    
   17.6000004      -55.8783646    
   17.6499996      -52.8989182    
   17.7000008      -49.8384972    
   17.7500000      -46.6981621    
   17.7999992      -43.4781494    
   17.8500004      -40.1783218    
   17.8999996      -36.7987976    
   17.9500008      -33.3405685    
   18.0000000      -29.8058414    
   18.0499992      -26.1979523    
   18.1000004      -22.5209141    
   18.1499996      -18.7787495    
   18.2000008      -14.9749098    
   18.2500000      -11.1119766    
   18.2999992      -7.19177628    
   18.3500004      -3.21585512    
   18.3999996      0.813888073    
   18.4500008       4.89466476    
   18.5000000       9.02256870    
   18.5499992       13.1927490    
   18.6000004       17.3998909    
   18.6499996       21.6388264    
   18.7000008       25.9050159    
   18.7500000       30.1947060    
   18.7999992       34.5047264    
   18.8500004       38.8319893    
   18.8999996       43.1729622    
   18.9500008       47.5232582    
   19.0000000       51.8775864    
   19.0499992       56.2300148    
   19.1000004       60.5744705    
   19.1499996       64.9052505    
   19.2000008       69.2173538    
   19.2500000       73.5064697    
   19.2999992       77.7686844    
   19.3500004       82.0000305    
   19.3999996       86.1960373    
   19.4500008       90.3515930    
   19.5000000       94.4610214    
   19.5499992       98.5184250    
   19.6000004       102.518143    
   19.6499996       106.455139    
   19.7000008       110.325035    
   19.7500000       114.123978    
   19.7999992       117.848213    
   19.8500004       121.493713    
   19.8999996       125.055893    
   19.9500008       128.529678    
   20.0000000       131.909866    
   20.0499992       135.191513    
   20.1000004       138.370422    
   20.1499996       141.443176    
   20.2000008       144.407211    
   20.2500000       147.260254    
   20.2999992       149.999908    
   20.3500004       152.623276    
   20.3999996       155.126846    
   20.4500008       157.506805    
   20.5000000       159.759430    
   20.5499992       161.881668    
   20.6000004       163.871445    
   20.6499996       165.727798    
   20.7000008       167.450409    
   20.7500000       169.039169    
   20.7999992       170.493607    
   20.8500004       171.812576    
   20.8999996       172.994324    
   20.9500008       174.036942    
   21.0000000       174.938828    
   21.0499992       175.699417    
   21.1000004       176.319275    
   21.1499996       176.800049    
   21.2000008       177.144028    
   21.2500000       177.353409    
   21.2999992       177.429794    
   21.3500004       177.374054    
   21.3999996       177.186295    
   21.4500008       176.866577    
   21.5000000       176.415466    
   21.5499992       175.834564    
   21.6000004       175.126770    
   21.6499996       174.295990    
   21.7000008       173.346588    
   21.7500000       172.282715    
   21.7999992       171.107803    
   21.8500004       169.824341    
   21.8999996       168.434219    
   21.9500008       166.939133    
   22.0000000       165.341354    
   22.0499992       163.644119    
   22.1000004       161.851761    
   22.1499996       159.969406    
   22.2000008       158.002457    
   22.2500000       155.955994    
   22.2999992       153.834244    
   22.3500004       151.640671    
   22.3999996       149.378113    
   22.4500008       147.049347    
   22.5000000       144.657547    
   22.5499992       142.206741    
   22.6000004       139.701691    
   22.6499996       137.147766    
   22.7000008       134.550293    
   22.7500000       131.914154    
   22.7999992       129.243591    
   22.8500004       126.542084    
   22.8999996       123.812729    
   22.9500008       121.058548    
   23.0000000       118.282928    
   23.0499992       115.489761    
   23.1000004       112.683342    
   23.1499996       109.868111    
   23.2000008       107.048317    
   23.2500000       104.227737    
   23.2999992       101.409607    
   23.3500004       98.5967178    
   23.3999996       95.7916794    
   23.4500008       92.9971695    
   23.5000000       90.2161102    
   23.5499992       87.4516678    
   23.6000004       84.7070541    
   23.6499996       81.9853134    
   23.7000008       79.2891388    
   23.7500000       76.6207733    
   23.7999992       73.9821472    
   23.8500004       71.3750534    
   23.8999996       68.8013382    
   23.9500008       66.2630081    
   24.0000000       63.7622032    
   24.0499992       61.3009605    
   24.1000004       58.8810463    
   24.1499996       56.5037613    
   24.2000008       54.1699486    
   24.2500000       51.8801498    
   24.2999992       49.6348991    
   24.3500004       47.4349403    
   24.3999996       45.2814102    
   24.4500008       43.1757011    
   24.5000000       41.1192627    
   24.5499992       39.1132088    
   24.6000004       37.1580582    
   24.6499996       35.2536316    
   24.7000008       33.3992081    
   24.7500000       31.5938892    
   24.7999992       29.8369961    
   24.8500004       28.1283894    
   24.8999996       26.4685402    
   24.9500008       24.8583164    
   25.0000000       23.2985649    
   25.0499992       21.7896614    
   25.1000004       20.3312035    
   25.1499996       18.9219761    
   25.2000008       17.5602322    
   25.2500000       16.2441521    
   25.2999992       14.9723568    
   25.3500004       13.7442083    
   25.3999996       12.5598230    
   25.4500008       11.4197598    
   25.5000000       10.3245077    
   25.5499992       9.27399158    
   25.6000004       8.26726532    
   25.6499996       7.30254221    
   25.7000008       6.37753534    
   25.7500000       5.48999166    
   25.7999992       4.63820410    
   25.8500004       3.82130289    
   25.8999996       3.03921843    
   25.9500008       2.29233360    
   26.0000000       1.58096337    
   26.0499992      0.904870749    
   26.1000004      0.263004214    
   26.1499996     -0.346446693    
   26.2000008     -0.925705016    
   26.2500000      -1.47691441    
   26.2999992      -2.00169778    
   26.3500004      -2.50093222    
   26.3999996      -2.97482276    
   26.4500008      -3.42322969    
   26.5000000      -3.84610915    
   26.5499992      -4.24388552    
   26.6000004      -4.61761618    
   26.6499996      -4.96888685    
   26.7000008      -5.29949570    
   26.7500000      -5.61106157    
   26.7999992      -5.90472269    
   26.8500004      -6.18103456    
   26.8999996      -6.44010210    
   26.9500008      -6.68187809    
   27.0000000      -6.90649509    
   27.0499992      -7.11449766    
   27.1000004      -7.30688572    
   27.1499996      -7.48496008    
   27.2000008      -7.65005350    
   27.2500000      -7.80325890    
   27.2999992      -7.94527245    
   27.3500004      -8.07640743    
   27.3999996      -8.19675827    
   27.4500008      -8.30643082    
   27.5000000      -8.40574074    
   27.5499992      -8.49528694    
   27.6000004      -8.57588482    
   27.6499996      -8.64839172    
   27.7000008      -8.71351814    
   27.7500000      -8.77171040    
   27.7999992      -8.82315350    
   27.8500004      -8.86789894    
   27.8999996      -8.90604019    
   27.9500008      -8.93786144    
   28.0000000      -8.96388721    
   28.0499992      -8.98480129    
   28.1000004      -9.00127697    
   28.1499996      -9.01379585    
   28.2000008      -9.02255821    
   28.2500000      -9.02750206    
   28.2999992      -9.02846241    
   28.3500004      -9.02538013    
   28.3999996      -9.01846504    
   28.4500008      -9.00824738    
   28.5000000      -8.99547386    
   28.5499992      -8.98088455    
   28.6000004      -8.96496677    
   28.6499996      -8.94779682    
   28.7000008      -8.92903805    
   28.7500000      -8.90811825    
   28.7999992      -8.88451481    
   28.8500004      -8.85803413    
   28.8999996      -8.82896900    
   28.9500008      -8.79806519    
   29.0000000      -8.76629162    
   29.0499992      -8.73451138    
   29.1000004      -8.70317554    
   29.1499996      -8.67217445    
   29.2000008      -8.64090443    
   29.2500000      -8.60853863    
   29.2999992      -8.57437992    
   29.3500004      -8.53817844    
   29.3999996      -8.50026226    
   29.4500008      -8.46144485    
   29.5000000      -8.42273617    
   29.5499992      -8.38496399    
   29.6000004      -8.34846687    
   29.6499996      -8.31297874    
   29.7000008      -8.27775383    
   29.7500000      -8.24186993    
   29.7999992      -8.20461655    
   29.8500004      -8.16577721    
   29.8999996      -8.12573433    
   29.9500008      -8.08532524    
   30.0000000      -8.04551792    
   30.0499992      -8.00704575    
   30.1000004      -7.97012997    
   30.1499996      -7.93441153    
   30.2000008      -7.89910269    
   30.2500000      -7.86330605    
   30.2999992      -7.82636738    
   30.3500004      -7.78812408    
   30.3999996      -7.74895430    
   30.4500008      -7.70962572    
   30.5000000      -7.67098808    
   30.5499992      -7.63365746    
   30.6000004      -7.59780216    
   30.6499996      -7.56311083    
   30.7000008      -7.52894926    
   30.7500000      -7.49462700    
   30.7999992      -7.45966673    
   30.8500004      -7.42397356    
   30.8999996      -7.38783264    
   30.9500008      -7.35176134    
   31.0000000      -7.31627893    
   31.0499992      -7.28169441    
   31.1000004      -7.24800158    
   31.1499996      -7.21491528    
   31.2000008      -7.18202257    
   31.2500000      -7.14897680    
   31.2999992      -7.11564970    
   31.3500004      -7.08217335    
   31.3999996      -7.04886389    
   31.4500008      -7.01606750    
   31.5000000      -6.98399496    
   31.5499992      -6.95263052    
   31.6000004      -6.92174387    
   31.6499996      -6.89100838    
   31.7000008      -6.86015892    
   31.7500000      -6.82912540    
   31.7999992      -6.79807186    
   31.8500004      -6.76732922    
   31.8999996      -6.73724174    
   31.9500008      -6.70800257    
   32.0000000      -6.67955160    
   32.0499992      -6.65158129    
   32.0999985      -6.62365532    
   32.1500015      -6.59539127    
   32.2000008      -6.56663227    
   32.2500000      -6.53752756    
   32.2999992      -6.50848627    
   32.3499985      -6.48002052    
   32.4000015      -6.45253325    
   32.4500008      -6.42615080    
   32.5000000      -6.40065718    
   32.5499992      -6.37557220    
   32.5999985      -6.35034227    
   32.6500015      -6.32455921    
   32.7000008      -6.29813337    
   32.7500000      -6.27133894    
   32.7999992      -6.24470758    