  -10.0000000       0.00000000    
  -9.94999981       0.00000000    
  -9.89999962       0.00000000    
  -9.85000038       0.00000000    
  -9.80000019       0.00000000    
  -9.75000000       0.00000000    
  -9.69999981       0.00000000    
  -9.64999962       0.00000000    
  -9.60000038       0.00000000    
  -9.55000019       0.00000000    
  -9.50000000       0.00000000    
  -9.44999981      -7.93465323E-37
  -9.39999962      -7.90797179E-36
  -9.35000038      -8.24165435E-35
  -9.30000019      -9.76486555E-34
  -9.25000000      -8.24556316E-33
  -9.19999981      -4.75097994E-32
  -9.14999962      -1.93954393E-31
  -9.10000038      -5.62566676E-31
  -9.05000019      -1.04867130E-30
  -9.00000000      -4.77133251E-31
  -8.94999981       4.65304975E-30
  -8.89999962       1.93759100E-29
  -8.85000038       4.12301397E-29
  -8.80000019       3.75664883E-29
  -8.75000000      -7.60164248E-29
  -8.69999981      -3.87405238E-28
  -8.64999962      -7.38538859E-28
  -8.60000038      -1.97008658E-28
  -8.55000019       3.42298456E-27
  -8.50000000       1.27442975E-26
  -8.44999981       2.64771579E-26
  -8.39999962       2.99363068E-26
  -8.35000038      -1.59482561E-26
  -8.30000019      -1.71635783E-25
  -8.25000000      -4.72190987E-25
  -8.19999981      -8.07233426E-25
  -8.14999962      -7.43791605E-25
  -8.10000038       5.73909374E-25
  -8.05000019       4.14490357E-24
  -8.00000000       1.00588372E-23
  -7.94999981       1.55263240E-23
  -7.90000010       1.27331648E-23
  -7.84999990      -1.11922410E-23
  -7.80000019      -6.83001073E-23
  -7.75000000      -1.54545260E-22
  -7.69999981      -2.26314727E-22
  -7.65000010      -1.80698158E-22
  -7.59999990       1.33891822E-22
  -7.55000019       8.40769821E-22
  -7.50000000       1.86846873E-21
  -7.44999981       2.72467054E-21
  -7.40000010       2.33877462E-21
  -7.34999990      -7.86705813E-22
  -7.30000019      -7.83298196E-21
  -7.25000000      -1.81983144E-20
  -7.19999981      -2.76290797E-20
  -7.15000010      -2.70053047E-20
  -7.09999990      -3.57988219E-21
  -7.05000019       5.33707012E-20
  -7.00000000       1.41730638E-19
  -6.94999981       2.32935767E-19
  -6.90000010       2.62667895E-19
  -6.84999990       1.37424879E-19
  -6.80000019      -2.30770182E-19
  -6.75000000      -8.56635377E-19
  -6.69999981      -1.59414124E-18
  -6.65000010      -2.06919830E-18
  -6.59999990      -1.69741598E-18
  -6.55000019       1.43234789E-19
  -6.50000000       3.75140759E-18
  -6.44999981       8.61006509E-18
  -6.40000010       1.29532944E-17
  -6.34999990       1.37110340E-17
  -6.30000019       7.18994074E-18
  -6.25000000      -9.29738932E-18
  -6.19999981      -3.50330412E-17
  -6.15000010      -6.34950191E-17
  -6.09999990      -8.13301184E-17
  -6.05000019      -7.03339763E-17
  -6.00000000      -1.36055337E-17
  -5.94999981       9.44193979E-17
  -5.90000010       2.36686522E-16
  -5.84999990       3.66141638E-16
  -5.80000019       4.08838928E-16
  -5.75000000       2.83000272E-16
  -5.69999981      -6.52706119E-17
  -5.65000010      -6.17082031E-16
  -5.59999990      -1.24351118E-15
  -5.55000019      -1.69934831E-15
  -5.50000000      -1.66959300E-15
  -5.44999981      -8.76976832E-16
  -5.40000010       7.66616010E-16
  -5.34999990       3.01312172E-15
  -5.30000019       5.20836536E-15
  -5.25000000       6.37370228E-15
  -5.19999981       5.47991015E-15
  -5.15000010       1.88276599E-15
  -5.09999990      -4.20288092E-15
  -5.05000019      -1.13929167E-14
  -5.00000000      -1.72100053E-14
  -4.94999981      -1.86901276E-14
  -4.90000010      -1.34786337E-14
  -4.84999990      -1.12226190E-15
  -4.80000019       1.59634963E-14
  -4.75000000       3.24498458E-14
  -4.69999981       4.13905394E-14
  -4.65000010       3.68065191E-14
  -4.59999990       1.68495741E-14
  -4.55000019      -1.37701579E-14
  -4.50000000      -4.36318123E-14
  -4.44999981      -5.78154468E-14
  -4.40000010      -4.43519834E-14
  -4.34999990      -2.05809122E-15
  -4.30000019       5.37083399E-14
  -4.25000000       9.14583147E-14
  -4.19999981       7.30719264E-14
  -4.15000010      -2.79172047E-14
  -4.09999990      -2.04250774E-13
  -4.05000019      -3.98616985E-13
  -4.00000000      -5.04640166E-13
  -3.95000005      -3.94104427E-13
  -3.90000010       2.90515157E-14
  -3.84999990       7.60266849E-13
  -3.79999995       1.63704000E-12
  -3.75000000       2.32612627E-12
  -3.70000005       2.38451750E-12
  -3.65000010       1.40385110E-12
  -3.59999990      -7.85485284E-13
  -3.54999995      -3.91262370E-12
  -3.50000000      -7.15731033E-12
  -3.45000005      -9.22568532E-12
  -3.40000010      -8.66458641E-12
  -3.34999990      -4.39019827E-12
  -3.29999995       3.69457069E-12
  -3.25000000       1.42111514E-11
  -3.20000005       2.42008427E-11
  -3.15000010       2.96095197E-11
  -3.09999990       2.64100825E-11
  -3.04999995       1.21735963E-11
  -3.00000000      -1.23534377E-11
  -2.95000005      -4.22807171E-11
  -2.90000010      -6.88220314E-11
  -2.84999990      -8.11161693E-11
  -2.79999995      -6.94968180E-11
  -2.75000000      -2.94853898E-11
  -2.70000005       3.47488323E-11
  -2.65000010       1.08942279E-10
  -2.59999990       1.70518918E-10
  -2.54999995       1.93997790E-10
  -2.50000000       1.59193284E-10
  -2.45000005       6.00712813E-11
  -2.40000010      -8.87799279E-11
  -2.34999990      -2.51146187E-10
  -2.29999995      -3.75636078E-10
  -2.25000000      -4.09410367E-10
  -2.20000005      -3.16306592E-10
  -2.15000010      -9.40576714E-11
  -2.09999990       2.15831589E-10
  -2.04999995       5.31066191E-10
  -2.00000000       7.46727180E-10
  -1.95000005       7.66066321E-10
  -1.89999998       5.36153177E-10
  -1.85000002       7.68814387E-11
  -1.79999995      -5.08631193E-10
  -1.75000000      -1.05045150E-09
  -1.70000005      -1.35559097E-09
  -1.64999998      -1.26995980E-09
  -1.60000002      -7.40673411E-10
  -1.54999995       1.43378739E-10
  -1.50000000       1.15202303E-09
  -1.45000005       1.96427496E-09
  -1.39999998       2.26174834E-09
  -1.35000002       1.84096716E-09
  -1.29999995       7.08534231E-10
  -1.25000000      -8.78496609E-10
  -1.20000005      -2.45298737E-09
  -1.14999998      -3.46116691E-09
  -1.10000002      -3.44204021E-09
  -1.04999995      -2.20979146E-09
  -1.00000000       2.58162432E-11
 -0.949999988       2.65699773E-09
 -0.899999976       4.81816631E-09
 -0.850000024       5.64690561E-09
 -0.800000012       4.59555460E-09
 -0.750000000       1.69072956E-09
 -0.699999988      -2.36374231E-09
 -0.649999976      -6.30920383E-09
 -0.600000024      -8.68058336E-09
 -0.550000012      -8.29957880E-09
 -0.500000000      -4.76239936E-09
 -0.449999988       1.25639754E-09
 -0.400000006       8.03157096E-09
 -0.349999994       1.32033895E-08
 -0.300000012       1.45100270E-08
 -0.250000000       1.06348006E-08
 -0.200000003       1.88479721E-09
 -0.150000006      -9.57871116E-09
 -0.100000001      -2.01325996E-08
  -5.00000007E-02  -2.56928292E-08
   5.55111512E-16  -2.30890471E-08
   5.00000007E-02  -1.13975691E-08
  0.100000001       7.25036653E-09
  0.150000006       2.77777463E-08
  0.200000003       4.33339373E-08
  0.250000000       4.73296708E-08
  0.300000012       3.57929721E-08
  0.349999994       9.28743837E-09
  0.400000006      -2.63582542E-08
  0.449999988      -6.09908426E-08
  0.500000000      -8.27375359E-08
  0.550000012      -8.16964558E-08
  0.600000024      -5.36553486E-08
  0.649999976      -2.58028066E-09
  0.699999988       5.91901284E-08
  0.750000000       1.13519704E-07
  0.800000012       1.41440665E-07
  0.850000024       1.29262574E-07
  0.899999976       7.39815675E-08
  0.949999988      -1.39260408E-08
   1.00000000      -1.11684237E-07
   1.04999995      -1.89628267E-07
   1.10000002      -2.19740613E-07
   1.14999998      -1.84998115E-07
   1.20000005      -8.65906813E-08
   1.25000000       5.36766223E-08
   1.29999995       1.97308552E-07
   1.35000002       2.99033189E-07
   1.39999998       3.20358396E-07
   1.45000005       2.42900057E-07
   1.50000000       7.71376207E-08
   1.54999995      -1.36869176E-07
   1.60000002      -3.38138818E-07
   1.64999998      -4.61288977E-07
   1.70000005      -4.56671245E-07
   1.75000000      -3.08153176E-07
   1.79999995      -4.25747935E-08
   1.85000002       2.73179069E-07
   1.89999998       5.48089588E-07
   1.95000005       6.92430262E-07
   2.00000000       6.45803198E-07
   2.04999995       3.99253906E-07
   2.09999990       3.84722254E-09
   2.15000010      -4.38467993E-07
   2.20000005      -8.00733858E-07
   2.25000000      -9.67245910E-07
   2.29999995      -8.69933842E-07
   2.34999990      -5.13540954E-07
   2.40000010       1.92874889E-08
   2.45000005       5.86413933E-07
   2.50000000       1.02445927E-06
   2.54999995       1.19669141E-06
   2.59999990       1.03645698E-06
   2.65000010       5.72306419E-07
   2.70000005      -7.43942721E-08
   2.75000000      -7.20632158E-07
   2.79999995      -1.17400305E-06
   2.84999990      -1.29116279E-06
   2.90000010      -1.02458500E-06
   2.95000005      -4.42220795E-07
   3.00000000       2.87775691E-07
   3.04999995       9.44505018E-07
   3.09999990       1.32080424E-06
   3.15000010       1.28873717E-06
   3.20000005       8.43228861E-07
   3.25000000       1.08815037E-07
   3.29999995      -6.94480491E-07
   3.34999990      -1.31713591E-06
   3.40000010      -1.55818384E-06
   3.45000005      -1.33059211E-06
   3.50000000      -6.92173558E-07
   3.54999995       1.69484267E-07
   3.59999990       9.94883862E-07
   3.65000010       1.53566828E-06
   3.70000005       1.63594200E-06
   3.75000000       1.28424472E-06
   3.79999995       6.17240289E-07
   3.84999990      -1.28085119E-07
   3.90000010      -6.99088559E-07
   3.95000005      -9.20456841E-07
   4.00000000      -7.62116997E-07
   4.05000019      -3.55311158E-07
   4.09999990       5.31826920E-08
   4.15000010       1.96861834E-07
   4.19999981      -9.61429052E-08
   4.25000000      -8.11941902E-07
   4.30000019      -1.72107048E-06
   4.34999990      -2.43015734E-06
   4.40000010      -2.50789799E-06
   4.44999981      -1.64993048E-06
   4.50000000       1.72066976E-07
   4.55000019       2.63417678E-06
   4.59999990       5.09673191E-06
   4.65000010       6.75967885E-06
   4.69999981       6.90259412E-06
   4.75000000       5.14093199E-06
   4.80000019       1.61443961E-06
   4.84999990      -2.96572216E-06
   4.90000010      -7.44799172E-06
   4.94999981      -1.05327426E-05
   5.00000000      -1.11540321E-05
   5.05000019      -8.84032852E-06
   5.09999990      -3.93636992E-06
   5.15000010       2.40186841E-06
   5.19999981       8.46540206E-06
   5.25000000       1.24526214E-05
   5.30000019       1.30108911E-05
   5.34999990       9.69914799E-06
   5.40000010       3.21841458E-06
   5.44999981      -4.68662483E-06
   5.50000000      -1.16592537E-05
   5.55000019      -1.53963501E-05
   5.59999990      -1.43659217E-05
   5.65000010      -8.36013169E-06
   5.69999981       1.30293267E-06
   5.75000000       1.20250870E-05
   5.80000019       2.05891974E-05
   5.84999990       2.40729969E-05
   5.90000010       2.07609937E-05
   5.94999981       1.07780352E-05
   6.00000000      -3.77091169E-06
   6.05000019      -1.92386015E-05
   6.09999990      -3.13669516E-05
   6.15000010      -3.64729167E-05
   6.19999981      -3.25553301E-05
   6.25000000      -1.99889309E-05
   6.30000019      -1.57255431E-06
   6.34999990       1.81239539E-05
   6.40000010       3.39634935E-05
   6.44999981       4.16723633E-05
   6.50000000       3.90879904E-05
   6.55000019       2.68464973E-05
   6.59999990       8.28112024E-06
   6.65000010      -1.14724335E-05
   6.69999981      -2.69297088E-05
   6.75000000      -3.38577447E-05
   6.80000019      -3.05472167E-05
   6.84999990      -1.83613593E-05
   6.90000010      -1.36988160E-06
   6.94999981       1.48526660E-05
   7.00000000       2.49259956E-05
   7.05000019       2.53562066E-05
   7.09999990       1.56981623E-05
   7.15000010      -1.19265746E-06
   7.19999981      -1.99339029E-05
   7.25000000      -3.42177300E-05
   7.30000019      -3.87764667E-05
   7.34999990      -3.11155964E-05
   7.40000010      -1.24629596E-05
   7.44999981       1.23984164E-05
   7.50000000       3.64143525E-05
   7.55000019       5.23145100E-05
   7.59999990       5.48374373E-05
   7.65000010       4.24453501E-05
   7.69999981       1.79760464E-05
   7.75000000      -1.20157911E-05
   7.80000019      -3.90813402E-05
   7.84999990      -5.53521750E-05
   7.90000010      -5.59323089E-05
   7.94999981      -4.04698876E-05
   8.00000000      -1.33952999E-05
   8.05000019       1.72946966E-05
   8.10000038       4.23825695E-05
   8.14999962       5.42196940E-05
   8.19999981       4.91127757E-05
   8.25000000       2.85552760E-05
   8.30000019      -1.11516420E-06
   8.35000038      -3.05771864E-05
   8.39999962      -5.03734445E-05
   8.44999981      -5.38893582E-05
   8.50000000      -3.95370844E-05
   8.55000019      -1.14363402E-05
   8.60000038       2.16694025E-05
   8.64999962       4.89789018E-05
   8.69999981       6.09245290E-05
   8.75000000       5.21800139E-05
   8.80000019       2.34319505E-05
   8.85000038      -1.86786820E-05
   8.89999962      -6.34801618E-05
   8.94999981      -9.95051814E-05
   9.00000000      -1.18050513E-04
   9.05000019      -1.15939161E-04
   9.10000038      -9.65810541E-05
   9.14999962      -6.89430453E-05
   9.19999981      -4.46972881E-05
   9.25000000      -3.44145265E-05
   9.30000019      -4.40108561E-05
   9.35000038      -7.26226936E-05
   9.39999962      -1.12669382E-04
   9.44999981      -1.52182722E-04
   9.50000000      -1.78744856E-04
   9.55000019      -1.83814525E-04
   9.60000038      -1.66029233E-04
   9.64999962      -1.32324727E-04
   9.69999981      -9.63588391E-05
   9.75000000      -7.45745565E-05
   9.80000019      -8.10271304E-05
   9.85000038      -1.22574551E-04
   9.89999962      -1.96019872E-04
   9.94999981      -2.88272742E-04
   10.0000000      -3.79702891E-04
   10.0500002      -4.49852494E-04
   10.1000004      -4.83869750E-04
   10.1499996      -4.77689609E-04
   10.1999998      -4.40248346E-04
   10.2500000      -3.91837966E-04
   10.3000002      -3.58847697E-04
   10.3500004      -3.66275257E-04
   10.3999996      -4.30161366E-04
   10.4499998      -5.52252401E-04
   10.5000000      -7.18643540E-04
   10.5500002      -9.03041975E-04
   10.6000004      -1.07391947E-03
   10.6499996      -1.20361312E-03
   10.6999998      -1.27675163E-03
   10.7500000      -1.29546912E-03
   10.8000002      -1.27971894E-03
   10.8500004      -1.26239634E-03
   10.8999996      -1.28051394E-03
   10.9499998      -1.36489421E-03
   11.0000000      -1.53136440E-03
   11.0500002      -1.77608582E-03
   11.1000004      -2.07649870E-03
   11.1499996      -2.39773863E-03
   11.1999998      -2.70275655E-03
   11.2500000      -2.96323723E-03
   11.3000002      -3.16812424E-03
   11.3500004      -3.32720974E-03
   11.3999996      -3.46868439E-03
   11.4499998      -3.63131776E-03
   11.5000000      -3.85356299E-03
   11.5500002      -4.16280935E-03
   11.6000004      -4.56800498E-03
   11.6499996      -5.05787088E-03
   11.6999998      -5.60524361E-03
   11.7500000      -6.17623562E-03
   11.8000002      -6.74139336E-03
   11.8500004      -7.28540402E-03
   11.8999996      -7.81231700E-03
   11.9499998      -8.34459346E-03
   12.0000000      -8.91623367E-03
   12.0500002      -9.56207141E-03
   12.1000004      -1.03066349E-02
   12.1499996      -1.11561548E-02
   12.1999998      -1.20964479E-02
   12.2500000      -1.30976066E-02
   12.3000002      -1.41242975E-02
   12.3500004      -1.51486164E-02
   12.3999996      -1.61615312E-02
   12.4499998      -1.71791296E-02
   12.5000000      -1.82413943E-02
   12.5500002      -1.94033999E-02
   12.6000004      -2.07211822E-02
   12.6499996      -2.22363006E-02
   12.6999998      -2.39637308E-02
   12.7500000      -2.58869231E-02
   12.8000002      -2.79619098E-02
   12.8500004      -3.01296692E-02
   12.8999996      -3.23335007E-02
   12.9499998      -3.45365219E-02
   13.0000000      -3.67341191E-02
   13.0500002      -3.89576145E-02
   13.1000004      -4.12678048E-02
   13.1499996      -4.37399633E-02
   13.1999998      -4.64445688E-02
   13.2500000      -4.94291671E-02
   13.3000002      -5.27067557E-02
   13.3500004      -5.62541187E-02
   13.3999996      -6.00206479E-02
   13.4499998      -6.39451966E-02
   13.5000000      -6.79759830E-02
   13.5500002      -7.20876753E-02
   13.6000004      -7.62906969E-02
   13.6499996      -8.06299075E-02
   13.6999998      -8.51731822E-02
   13.7500000      -8.99933204E-02
   13.8000002      -9.51488242E-02
   13.8500004     -0.100669354    
   13.8999996     -0.106550276    
   13.9499998     -0.112757899    
   14.0000000     -0.119243689    
   14.0500002     -0.125963077    
   14.1000004     -0.132892713    
   14.1499996     -0.140041009    
   14.1999998     -0.147448257    
   14.2500000     -0.155176252    
   14.3000002     -0.163290620    
   14.3500004     -0.171841145    
   14.3999996     -0.180846468    
   14.4499998     -0.190288126    
   14.5000000     -0.200115874    
   14.5500002     -0.210263640    
   14.6000004     -0.220670983    
   14.6499996     -0.231304154    
   14.6999998     -0.242170274    
   14.7500000     -0.253320009    
   14.8000002     -0.264837772    
   14.8500004     -0.276821733    
   14.8999996     -0.289359421    
   14.9499998     -0.302505106    
   15.0000000     -0.316266567    
   15.0500002     -0.330603629    
   15.1000004     -0.345440179    
   15.1499996     -0.360685527    
   15.1999998     -0.376259327    
   15.2500000     -0.392113477    
   15.3000002     -0.408244371    
   15.3500004     -0.424692661    
   15.3999996     -0.441530675    
   15.4499998     -0.458841592    
   15.5000000     -0.476696074    
   15.5500002     -0.495133311    
   15.6000004     -0.514151394    
   15.6499996     -0.533709764    
   15.6999998     -0.553742409    
   15.7500000     -0.574176967    
   15.8000002     -0.594954669    
   15.8500004     -0.616044521    
   15.8999996     -0.637447953    
   15.9499998     -0.659192145    
   16.0000000     -0.681316137    
   16.0499992     -0.703852355    
   16.1000004     -0.726811826    
   16.1499996     -0.750175834    
   16.2000008     -0.773899257    
   16.2500000     -0.797921956    
   16.2999992     -0.822186768    
   16.3500004     -0.846656263    
   16.3999996     -0.871324003    
   16.4500008     -0.896214187    
   16.5000000     -0.921370804    
   16.5499992     -0.946838677    
   16.6000004     -0.972641051    
   16.6499996     -0.998762548    
   16.7000008      -1.02514231    
   16.7500000      -1.05168104    
   16.7999992      -1.07825935    
   16.8500004      -1.10476434    
   16.8999996      -1.13111532    
   16.9500008      -1.15728128    
   17.0000000      -1.18328381    
   17.0499992      -1.20918596    
   17.1000004      -1.23506665    
   17.1499996      -1.26099145    
   17.2000008      -1.28698564    
   17.2500000      -1.31301808    
   17.2999992      -1.33900177    
   17.3500004      -1.36480987    
   17.3999996      -1.39030182    
   17.4500008      -1.41535401    
   17.5000000      -1.43988359    
   17.5499992      -1.46386027    
   17.6000004      -1.48730302    
   17.6499996      -1.51026237    
   17.7000008      -1.53279448    
   17.7500000      -1.55493712    
   17.7999992      -1.57669044    
   17.8500004      -1.59801269    
   17.8999996      -1.61882794    
   17.9500008      -1.63904357    
   18.0000000      -1.65857136    
   18.0499992      -1.67734587    
   18.1000004      -1.69533312    
   18.1499996      -1.71252835    
   18.2000008      -1.72894478    
   18.2500000      -1.74459577    
   18.2999992      -1.75947976    
   18.3500004      -1.77357030    
   18.3999996      -1.78681588    
   18.4500008      -1.79914975    
   18.5000000      -1.81050539    
   18.5499992      -1.82083356    
   18.6000004      -1.83011448    
   18.6499996      -1.83836138    
   18.7000008      -1.84561348    
   18.7500000      -1.85192072    
   18.7999992      -1.85732496    
   18.8500004      -1.86184132    
   18.8999996      -1.86544776    
   18.9500008      -1.86808407    
   19.0000000      -1.86966407    
   19.0499992      -1.87009323    
   19.1000004      -1.86929286    
   19.1499996      -1.86722112    
   19.2000008      -1.86388516    
   19.2500000      -1.85934210    
   19.2999992      -1.85368729    
   19.3500004      -1.84703159    
   19.3999996      -1.83947504    
   19.4500008      -1.83108127    
   19.5000000      -1.82186091    
   19.5499992      -1.81176937    
   19.6000004      -1.80071771    
   19.6499996      -1.78859699    
   19.7000008      -1.77530801    
   19.7500000      -1.76079035    
   19.7999992      -1.74504137    
   19.8500004      -1.72812068    
   19.8999996      -1.71014059    
   19.9500008      -1.69124031    
   20.0000000      -1.67155528    
   20.0499992      -1.65118945    
   20.1000004      -1.63019538    
   20.1499996      -1.60856950    
   20.2000008      -1.58626378    
   20.2500000      -1.56320810    
   20.2999992      -1.53933752    
   20.3500004      -1.51461577    
   20.3999996      -1.48904896    
   20.4500008      -1.46268463    
   20.5000000      -1.43560040    
   20.5499992      -1.40788376    
   20.6000004      -1.37961185    
   20.6499996      -1.35083878    
   20.7000008      -1.32159078    
   20.7500000      -1.29187429    
   20.7999992      -1.26168847    
   20.8500004      -1.23104155    
   20.8999996      -1.19996107    
   20.9500008      -1.16849566    
   21.0000000      -1.13670897    
   21.0499992      -1.10466528    
   21.1000004      -1.07241595    
   21.1499996      -1.03998864    
   21.2000008      -1.00738537    
   21.2500000     -0.974589109    
   21.2999992     -0.941576540    
   21.3500004     -0.908334255    
   21.3999996     -0.874870062    
   21.4500008     -0.841218531    
   21.5000000     -0.807437360    
   21.5499992     -0.773597538    
   21.6000004     -0.739769816    
   21.6499996     -0.706013143    
   21.7000008     -0.672367036    
   21.7500000     -0.638851583    
   21.7999992     -0.605471611    
   21.8500004     -0.572224736    
   21.8999996     -0.539107919    
   21.9500008     -0.506122112    
   22.0000000     -0.473273039    
   22.0499992     -0.440568805    
   22.1000004     -0.408017486    
   22.1499996     -0.375625134    
   22.2000008     -0.343396932    
   22.2500000     -0.311340511    
   22.2999992     -0.279470056    
   22.3500004     -0.247808859    
   22.3999996     -0.216388702    
   22.4500008     -0.185245559    
   22.5000000     -0.154413342    
   22.5499992     -0.123916544    
   22.6000004      -9.37652886E-02
   22.6499996      -6.39546663E-02
   22.7000008      -3.44680250E-02
   22.7500000      -5.28363185E-03
   22.7999992       2.36179568E-02
   22.8500004       5.22484742E-02
   22.8999996       8.06104913E-02
   22.9500008      0.108699813    
   23.0000000      0.136510268    
   23.0499992      0.164038792    
   23.1000004      0.191288561    
   23.1499996      0.218267843    
   23.2000008      0.244986057    
   23.2500000      0.271447271    
   23.2999992      0.297645152    
   23.3500004      0.323561162    
   23.3999996      0.349167794    
   23.4500008      0.374435961    
   23.5000000      0.399345130    
   23.5499992      0.423892319    
   23.6000004      0.448097289    
   23.6499996      0.472001165    
   23.7000008      0.495659709    
   23.7500000      0.519131720    
   23.7999992      0.542466223    
   23.8500004      0.565692246    
   23.8999996      0.588813305    
   23.9500008      0.611809254    
   24.0000000      0.634643197    
   24.0499992      0.657271802    
   24.1000004      0.679656506    
   24.1499996      0.701772809    
   24.2000008      0.723614037    
   24.2500000      0.745192349    
   24.2999992      0.766535223    
   24.3500004      0.787679434    
   24.3999996      0.808666110    
   24.4500008      0.829536319    
   24.5000000      0.850327730    
   24.5499992      0.871072471    
   24.6000004      0.891794622    
   24.6499996      0.912508547    
   24.7000008      0.933216691    
   24.7500000      0.953908563    
   24.7999992      0.974560738    
   24.8500004      0.995140731    
   24.8999996       1.01561308    
   24.9500008       1.03594828    
   25.0000000       1.05613041    
   25.0499992       1.07616472    
   25.1000004       1.09607899    
   25.1499996       1.11591911    
   25.2000008       1.13574147    
   25.2500000       1.15560079    
   25.2999992       1.17553902    
   25.3500004       1.19557774    
   25.3999996       1.21571684    
   25.4500008       1.23593748    
   25.5000000       1.25621271    
   25.5499992       1.27651715    
   25.6000004       1.29683661    
   25.6499996       1.31717241    
   25.7000008       1.33753932    
   25.7500000       1.35795760    
   25.7999992       1.37844408    
   25.8500004       1.39900374    
   25.8999996       1.41962802    
   25.9500008       1.44029856    
   26.0000000       1.46099699    
   26.0499992       1.48171723    
   26.1000004       1.50247490    
   26.1499996       1.52330792    
   26.2000008       1.54427147    
   26.2500000       1.56542325    
   26.2999992       1.58680701    
   26.3500004       1.60843766    
   26.3999996       1.63029695    
   26.4500008       1.65233874    
   26.5000000       1.67450500    
   26.5499992       1.69674623    
   26.6000004       1.71903992    
   26.6499996       1.74139929    
   26.7000008       1.76387060    
   26.7500000       1.78651631    
   26.7999992       1.80939364    
   26.8500004       1.83253312    
   26.8999996       1.85592866    
   26.9500008       1.87953961    
   27.0000000       1.90330863    
   27.0499992       1.92718470    
   27.1000004       1.95114613    
   27.1499996       1.97521198    
   27.2000008       1.99944019    
   27.2500000       2.02390838    
   27.2999992       2.04868817    
   27.3500004       2.07382083    
   27.3999996       2.09930348    
   27.4500008       2.12509179    
   27.5000000       2.15111780    
   27.5499992       2.17731524    
   27.6000004       2.20364571    
   27.6499996       2.23011184    
   27.7000008       2.25675058    
   27.7500000       2.28361607    
   27.7999992       2.31075096    
   27.8500004       2.33816385    
   27.8999996       2.36581850    
   27.9500008       2.39364624    
   28.0000000       2.42156935    
   28.0499992       2.44953442    
   28.1000004       2.47753739    
   28.1499996       2.50563145    
   28.2000008       2.53391242    
   28.2500000       2.56248546    
   28.2999992       2.59142685    
   28.3500004       2.62075138    
   28.3999996       2.65039992    
   28.4500008       2.68025327    
   28.5000000       2.71016312    
   28.5499992       2.73999262    
   28.6000004       2.76965284    
   28.6499996       2.79911613    
   28.7000008       2.82840824    
   28.7500000       2.85758042    
   28.7999992       2.88667607    
   28.8500004       2.91570282    
   28.8999996       2.94462514    
   28.9500008       2.97337508    
   29.0000000       3.00188017    
   29.0499992       3.03009152    
   29.1000004       3.05799985    
   29.1499996       3.08563066    
   29.2000008       3.11301780    
   29.2500000       3.14016652    
   29.2999992       3.16701961    
   29.3500004       3.19344425    
   29.3999996       3.21924734    
   29.4500008       3.24421263    
   29.5000000       3.26815057    
   29.5499992       3.29094195    
   29.6000004       3.31255579    
   29.6499996       3.33303666    
   29.7000008       3.35246253    
   29.7500000       3.37088966    
   29.7999992       3.38830590    
   29.8500004       3.40460849    
   29.8999996       3.41961789    
   29.9500008       3.43311858    
   30.0000000       3.44491339    
   30.0499992       3.45486617    
   30.1000004       3.46291876    
   30.1499996       3.46907210    
   30.2000008       3.47333741    
   30.2500000       3.47568059    
   30.2999992       3.47598004    
   30.3500004       3.47401714    
   30.3999996       3.46950531    
   30.4500008       3.46214700    
   30.5000000       3.45170283    
   30.5499992       3.43803644    
   30.6000004       3.42112875    
   30.6499996       3.40104342    
   30.7000008       3.37786651    
   30.7500000       3.35163236    
   30.7999992       3.32226992    
   30.8500004       3.28958750    
   30.8999996       3.25329971    
   30.9500008       3.21308613    
   31.0000000       3.16866016    
   31.0499992       3.11982179    
   31.1000004       3.06647062    
   31.1499996       3.00858426    
   31.2000008       2.94616365    
   31.2500000       2.87917662    
   31.2999992       2.80751657    
   31.3500004       2.73099995    
   31.3999996       2.64939690    
   31.4500008       2.56248641    
   31.5000000       2.47011042    
   31.5499992       2.37220430    
   31.6000004       2.26879120    
   31.6499996       2.15993977    
   31.7000008       2.04570270    
   31.7500000       1.92606044    
   31.7999992       1.80089295    
   31.8500004       1.66999090    
   31.8999996       1.53310192    
   31.9500008       1.38999510    
   32.0000000       1.24051821    
   32.0499992       1.08462667    
   32.0999985      0.922373652    
   32.1500015      0.753867686    
   32.2000008      0.579215229    
   32.2500000      0.398472309    
   32.2999992      0.211626709    
   32.3499985       1.86137967E-02
   32.4000015     -0.180638716    
   32.4500008     -0.386158675    
   32.5000000     -0.597893298    
   32.5499992     -0.815704286    
   32.5999985      -1.03939891    
   32.6500015      -1.26878309    
   32.7000008      -1.50371671    
   32.7500000      -1.74414694    
   32.7999992      -1.99010324    