  -10.0000000       0.00000000    
  -9.94999981       0.00000000    
  -9.89999962       0.00000000    
  -9.85000038       0.00000000    
  -9.80000019       0.00000000    
  -9.75000000       0.00000000    
  -9.69999981       0.00000000    
  -9.64999962       0.00000000    
  -9.60000038       0.00000000    
  -9.55000019       5.20726806E-22
  -9.50000000       9.54979290E-21
  -9.44999981       8.72708957E-20
  -9.39999962       5.26981052E-19
  -9.35000038       2.34418498E-18
  -9.30000019       8.07115444E-18
  -9.25000000       2.17966277E-17
  -9.19999981       4.47022300E-17
  -9.14999962       5.85178601E-17
  -9.10000038      -1.13512291E-17
  -9.05000019      -3.48620020E-16
  -9.00000000      -1.27148232E-15
  -8.94999981      -3.11994633E-15
  -8.89999962      -5.83335497E-15
  -8.85000038      -8.08477956E-15
  -8.80000019      -6.11843662E-15
  -8.75000000       6.94224477E-15
  -8.69999981       3.97022571E-14
  -8.64999962       9.68748194E-14
  -8.60000038       1.68094962E-13
  -8.55000019       2.13120130E-13
  -8.50000000       1.51516698E-13
  -8.44999981      -1.27812190E-13
  -8.39999962      -7.18422283E-13
  -8.35000038      -1.59844859E-12
  -8.30000019      -2.49816313E-12
  -8.25000000      -2.79262876E-12
  -8.19999981      -1.52818513E-12
  -8.14999962       2.28665958E-12
  -8.10000038       9.04448391E-12
  -8.05000019       1.76306469E-11
  -8.00000000       2.45750816E-11
  -7.94999981       2.38761372E-11
  -7.90000010       8.24758838E-12
  -7.84999990      -2.76753464E-11
  -7.80000019      -8.23719010E-11
  -7.75000000      -1.42149265E-10
  -7.69999981      -1.78355747E-10
  -7.65000010      -1.50747817E-10
  -7.59999990      -2.00343214E-11
  -7.55000019       2.30199762E-10
  -7.50000000       5.66995395E-10
  -7.44999981       8.87716678E-10
  -7.40000010       1.02103992E-09
  -7.34999990       7.63604124E-10
  -7.30000019      -4.20085702E-11
  -7.25000000      -1.39952949E-09
  -7.19999981      -3.05530068E-09
  -7.15000010      -4.45145520E-09
  -7.09999990      -4.79328044E-09
  -7.05000019      -3.26733907E-09
  -7.00000000       6.03131711E-10
  -6.94999981       6.55052323E-09
  -6.90000010       1.32584939E-08
  -6.84999990       1.83528872E-08
  -6.80000019       1.88475688E-08
  -6.75000000       1.20843300E-08
  -6.69999981      -2.99108316E-09
  -6.65000010      -2.45968970E-08
  -6.59999990      -4.74679318E-08
  -6.55000019      -6.33346744E-08
  -6.50000000      -6.28409822E-08
  -6.44999981      -3.87514660E-08
  -6.40000010       1.02950279E-08
  -6.34999990       7.67618502E-08
  -6.30000019       1.43420806E-07
  -6.25000000       1.85990089E-07
  -6.19999981       1.79508561E-07
  -6.15000010       1.07396914E-07
  -6.09999990      -2.92776345E-08
  -6.05000019      -2.05783266E-07
  -6.00000000      -3.74360866E-07
  -5.94999981      -4.73551637E-07
  -5.90000010      -4.45644389E-07
  -5.84999990      -2.58446647E-07
  -5.80000019       7.52116378E-08
  -5.75000000       4.88010699E-07
  -5.69999981       8.65114430E-07
  -5.65000010       1.06987159E-06
  -5.59999990       9.84429676E-07
  -5.55000019       5.55079964E-07
  -5.50000000      -1.72218066E-07
  -5.44999981      -1.04095807E-06
  -5.40000010      -1.80776681E-06
  -5.34999990      -2.20098218E-06
  -5.30000019      -2.00257819E-06
  -5.25000000      -1.13135673E-06
  -5.19999981       2.99869754E-07
  -5.15000010       1.97737268E-06
  -5.09999990       3.44235946E-06
  -5.05000019       4.20390234E-06
  -5.00000000       3.88373019E-06
  -4.94999981       2.35304788E-06
  -4.90000010      -1.82519116E-07
  -4.84999990      -3.18440561E-06
  -4.80000019      -5.88195144E-06
  -4.75000000      -7.45705665E-06
  -4.69999981      -7.26987673E-06
  -4.65000010      -5.06554397E-06
  -4.59999990      -1.10074177E-06
  -4.55000019       3.85436442E-06
  -4.50000000       8.65261245E-06
  -4.44999981       1.20219129E-05
  -4.40000010       1.28776492E-05
  -4.34999990       1.06209973E-05
  -4.30000019       5.34792071E-06
  -4.25000000      -2.08878691E-06
  -4.19999981      -1.01908836E-05
  -4.15000010      -1.70887233E-05
  -4.09999990      -2.09320242E-05
  -4.05000019      -2.03245709E-05
  -4.00000000      -1.47151586E-05
  -3.95000005      -4.65597714E-06
  -3.90000010       8.14721261E-06
  -3.84999990       2.10405597E-05
  -3.79999995       3.08874369E-05
  -3.75000000       3.47413770E-05
  -3.70000005       3.06122674E-05
  -3.65000010       1.81568539E-05
  -3.59999990      -9.03489365E-07
  -3.54999995      -2.28164463E-05
  -3.50000000      -4.23860038E-05
  -3.45000005      -5.40834408E-05
  -3.40000010      -5.34899009E-05
  -3.34999990      -3.87295113E-05
  -3.29999995      -1.14705981E-05
  -3.25000000       2.28948593E-05
  -3.20000005       5.61178640E-05
  -3.15000010       7.89528276E-05
  -3.09999990       8.36390900E-05
  -3.04999995       6.63636238E-05
  -3.00000000       2.89528834E-05
  -2.95000005      -2.08485180E-05
  -2.90000010      -7.08167063E-05
  -2.84999990      -1.07217049E-04
  -2.79999995      -1.18604919E-04
  -2.75000000      -9.94020083E-05
  -2.70000005      -5.21241273E-05
  -2.65000010       1.25763390E-05
  -2.59999990       7.82967109E-05
  -2.54999995       1.27201958E-04
  -2.50000000       1.45117912E-04
  -2.45000005       1.25892693E-04
  -2.40000010       7.36240036E-05
  -2.34999990       1.91905565E-06
  -2.29999995      -6.97620562E-05
  -2.25000000      -1.21696525E-04
  -2.20000005      -1.39766009E-04
  -2.15000010      -1.19771081E-04
  -2.09999990      -6.87789725E-05
  -2.04999995      -2.99062367E-06
  -2.00000000       5.72787139E-05
  -1.95000005       9.39572274E-05
  -1.89999998       9.68900640E-05
  -1.85000002       6.69892688E-05
  -1.79999995       1.58196090E-05
  -1.75000000      -3.82597027E-05
  -1.70000005      -7.61407282E-05
  -1.64999998      -8.42170120E-05
  -1.60000002      -5.87916038E-05
  -1.54999995      -7.22109417E-06
  -1.50000000       5.45263392E-05
  -1.45000005       1.07025138E-04
  -1.39999998       1.33507652E-04
  -1.35000002       1.24928440E-04
  -1.29999995       8.23985465E-05
  -1.25000000       1.63669229E-05
  -1.20000005      -5.69500589E-05
  -1.14999998      -1.20505953E-04
  -1.10000002      -1.61005955E-04
  -1.04999995      -1.71714608E-04
  -1.00000000      -1.52865643E-04
 -0.949999988      -1.10003530E-04
 -0.899999976      -5.13151244E-05
 -0.850000024       1.47659812E-05
 -0.800000012       8.07452525E-05
 -0.750000000       1.39850585E-04
 -0.699999988       1.85021345E-04
 -0.649999976       2.08199504E-04
 -0.600000024       2.00954892E-04
 -0.550000012       1.56851645E-04
 -0.500000000       7.50213221E-05
 -0.449999988      -3.64469743E-05
 -0.400000006      -1.59055708E-04
 -0.349999994      -2.65785144E-04
 -0.300000012      -3.26674810E-04
 -0.250000000      -3.17065365E-04
 -0.200000003      -2.26225442E-04
 -0.150000006      -6.34971075E-05
 -0.100000001       1.40543503E-04
  -5.00000007E-02   3.39122693E-04
   5.55111512E-16   4.79855778E-04
   5.00000007E-02   5.18396322E-04
  0.100000001       4.31454129E-04
  0.150000006       2.25351163E-04
  0.200000003      -6.26883921E-05
  0.250000000      -3.71398986E-04
  0.300000012      -6.29121612E-04
  0.349999994      -7.70954124E-04
  0.400000006      -7.55083805E-04
  0.449999988      -5.74109959E-04
  0.500000000      -2.58394837E-04
  0.550000012       1.29544409E-04
  0.600000024       5.08411671E-04
  0.649999976       7.96241511E-04
  0.699999988       9.29117377E-04
  0.750000000       8.76233215E-04
  0.800000012       6.47826528E-04
  0.850000024       2.94027937E-04
  0.899999976      -1.05392231E-04
  0.949999988      -4.58417257E-04
   1.00000000      -6.81691279E-04
   1.04999995      -7.20315729E-04
   1.10000002      -5.61836641E-04
   1.14999998      -2.40712761E-04
   1.20000005       1.68467639E-04
   1.25000000       5.68117597E-04
   1.29999995       8.61496432E-04
   1.35000002       9.77541786E-04
   1.39999998       8.90180352E-04
   1.45000005       6.26561814E-04
   1.50000000       2.61301931E-04
   1.54999995      -1.02427985E-04
   1.60000002      -3.60285776E-04
   1.64999998      -4.35181748E-04
   1.70000005      -2.98601430E-04
   1.75000000       2.15635282E-05
   1.79999995       4.49250569E-04
   1.85000002       8.82297987E-04
   1.89999998       1.22184074E-03
   1.95000005       1.40017213E-03
   2.00000000       1.39864744E-03
   2.04999995       1.25036866E-03
   2.09999990       1.02727883E-03
   2.15000010       8.16308777E-04
   2.20000005       6.92647009E-04
   2.25000000       6.98889489E-04
   2.29999995       8.36518069E-04
   2.34999990       1.07169198E-03
   2.40000010       1.35230296E-03
   2.45000005       1.62943581E-03
   2.50000000       1.87514571E-03
   2.54999995       2.09021219E-03
   2.59999990       2.29957188E-03
   2.65000010       2.53792014E-03
   2.70000005       2.83172633E-03
   2.75000000       3.18519096E-03
   2.79999995       3.57604562E-03
   2.84999990       3.96317896E-03
   2.90000010       4.30336455E-03
   2.95000005       4.57068766E-03
   3.00000000       4.77099419E-03
   3.04999995       4.94536757E-03
   3.09999990       5.16061857E-03
   3.15000010       5.48959197E-03
   3.20000005       5.98796830E-03
   3.25000000       6.67570252E-03
   3.29999995       7.52978120E-03
   3.34999990       8.49112589E-03
   3.40000010       9.48359724E-03
   3.45000005       1.04389265E-02
   3.50000000       1.13194333E-02
   3.54999995       1.21312020E-02
   3.59999990       1.29236132E-02
   3.65000010       1.37756048E-02
   3.70000005       1.47731537E-02
   3.75000000       1.59850344E-02
   3.79999995       1.74440499E-02
   3.84999990       1.91389862E-02
   3.90000010       2.10191514E-02
   3.95000005       2.30097771E-02
   4.00000000       2.50338353E-02
   4.05000019       2.70344503E-02
   4.09999990       2.89924201E-02
   4.15000010       3.09348106E-02
   4.19999981       3.29327323E-02
   4.25000000       3.50887664E-02
   4.30000019       3.75165604E-02
   4.34999990       4.03167047E-02
   4.40000010       4.35540713E-02
   4.44999981       4.72418703E-02
   4.50000000       5.13369218E-02
   4.55000019       5.57486154E-02
   4.59999990       6.03609309E-02
   4.65000010       6.50635511E-02
   4.69999981       6.97847158E-02
   4.75000000       7.45171607E-02
   4.80000019       7.93290362E-02
   4.84999990       8.43551382E-02
   4.90000010       8.97691846E-02
   4.94999981       9.57435071E-02
   5.00000000      0.102407284    
   5.05000019      0.109815314    
   5.09999990      0.117937505    
   5.15000010      0.126672789    
   5.19999981      0.135883972    
   5.25000000      0.145443335    
   5.30000019      0.155274957    
   5.34999990      0.165380731    
   5.40000010      0.175842538    
   5.44999981      0.186800256    
   5.50000000      0.198413864    
   5.55000019      0.210822314    
   5.59999990      0.224112913    
   5.65000010      0.238310456    
   5.69999981      0.253388435    
   5.75000000      0.269296616    
   5.80000019      0.285993993    
   5.84999990      0.303474993    
   5.90000010      0.321780086    
   5.94999981      0.340987742    
   6.00000000      0.361192763    
   6.05000019      0.382479876    
   6.09999990      0.404903412    
   6.15000010      0.428480625    
   6.19999981      0.453200340    
   6.25000000      0.479043156    
   6.30000019      0.506004572    
   6.34999990      0.534112215    
   6.40000010      0.563430488    
   6.44999981      0.594051957    
   6.50000000      0.626078665    
   6.55000019      0.659601986    
   6.59999990      0.694687426    
   6.65000010      0.731369972    
   6.69999981      0.769660473    
   6.75000000      0.809559882    
   6.80000019      0.851074636    
   6.84999990      0.894227803    
   6.90000010      0.939062655    
   6.94999981      0.985638559    
   7.00000000       1.03402162    
   7.05000019       1.08427596    
   7.09999990       1.13645613    
   7.15000010       1.19060588    
   7.19999981       1.24675965    
   7.25000000       1.30494618    
   7.30000019       1.36519158    
   7.34999990       1.42752147    
   7.40000010       1.49196255    
   7.44999981       1.55854416    
   7.50000000       1.62730217    
   7.55000019       1.69828463    
   7.59999990       1.77155399    
   7.65000010       1.84718752    
   7.69999981       1.92526817    
   7.75000000       2.00587130    
   7.80000019       2.08904481    
   7.84999990       2.17479634    
   7.90000010       2.26308799    
   7.94999981       2.35384417    
   8.00000000       2.44697666    
   8.05000019       2.54241467    
   8.10000038       2.64013362    
   8.14999962       2.74017048    
   8.19999981       2.84262037    
   8.25000000       2.94761300    
   8.30000019       3.05527735    
   8.35000038       3.16570401    
   8.39999962       3.27892017    
   8.44999981       3.39488721    
   8.50000000       3.51351762    
   8.55000019       3.63470936    
   8.60000038       3.75838089    
   8.64999962       3.88449526    
   8.69999981       4.01306295    
   8.75000000       4.14412355    
   8.80000019       4.27771473    
   8.85000038       4.41384077    
   8.89999962       4.55245161    
   8.94999981       4.69344854    
   9.00000000       4.83670807    
   9.05000019       4.98211527    
   9.10000038       5.12960005    
   9.14999962       5.27915668    
   9.19999981       5.43083239    
   9.25000000       5.58470774    
   9.30000019       5.74085331    
   9.35000038       5.89929199    
   9.39999962       6.05998039    
   9.44999981       6.22280884    
   9.50000000       6.38762283    
   9.55000019       6.55425596    
   9.60000038       6.72256041    
   9.64999962       6.89242029    
   9.69999981       7.06375647    
   9.75000000       7.23650885    
   9.80000019       7.41062117    
   9.85000038       7.58603096    
   9.89999962       7.76266909    
   9.94999981       7.94047546    
   10.0000000       8.11941719    
   10.0500002       8.29950142    
   10.1000004       8.48076725    
   10.1499996       8.66326237    
   10.1999998       8.84700584    
   10.2500000       9.03195381    
   10.3000002       9.21797180    
   10.3500004       9.40484333    
   10.3999996       9.59229851    
   10.4499998       9.78007030    
   10.5000000       9.96794319    
   10.5500002       10.1557961    
   10.6000004       10.3436117    
   10.6499996       10.5314541    
   10.6999998       10.7194290    
   10.7500000       10.9076242    
   10.8000002       11.0960798    
   10.8500004       11.2847576    
   10.8999996       11.4735641    
   10.9499998       11.6623688    
   11.0000000       11.8510475    
   11.0500002       12.0395021    
   11.1000004       12.2276678    
   11.1499996       12.4155140    
   11.1999998       12.6030054    
   11.2500000       12.7900982    
   11.3000002       12.9767160    
   11.3500004       13.1627636    
   11.3999996       13.3481445    
   11.4499998       13.5327816    
   11.5000000       13.7166357    
   11.5500002       13.8997030    
   11.6000004       14.0820093    
   11.6499996       14.2635860    
   11.6999998       14.4444532    
   11.7500000       14.6246119    
   11.8000002       14.8040543    
   11.8500004       14.9827700    
   11.8999996       15.1607695    
   11.9499998       15.3380795    
   12.0000000       15.5147362    
   12.0500002       15.6907625    
   12.1000004       15.8661375    
   12.1499996       16.0407925    
   12.1999998       16.2146034    
   12.2500000       16.3874416    
   12.3000002       16.5592003    
   12.3500004       16.7298431    
   12.3999996       16.8994370    
   12.4499998       17.0681343    
   12.5000000       17.2361317    
   12.5500002       17.4036102    
   12.6000004       17.5706863    
   12.6499996       17.7373657    
   12.6999998       17.9035664    
   12.7500000       18.0691471    
   12.8000002       18.2339821    
   12.8500004       18.3980141    
   12.8999996       18.5612965    
   12.9499998       18.7239742    
   13.0000000       18.8862381    
   13.0500002       19.0482540    
   13.1000004       19.2101040    
   13.1499996       19.3717537    
   13.1999998       19.5330601    
   13.2500000       19.6938362    
   13.3000002       19.8539181    
   13.3500004       20.0132389    
   13.3999996       20.1718464    
   13.4499998       20.3299007    
   13.5000000       20.4876251    
   13.5500002       20.6452179    
   13.6000004       20.8028088    
   13.6499996       20.9604282    
   13.6999998       21.1180077    
   13.7500000       21.2754345    
   13.8000002       21.4326057    
   13.8500004       21.5894680    
   13.8999996       21.7460232    
   13.9499998       21.9023113    
   14.0000000       22.0583649    
   14.0500002       22.2141647    
   14.1000004       22.3696213    
   14.1499996       22.5245991    
   14.1999998       22.6789589    
   14.2500000       22.8326168    
   14.3000002       22.9855843    
   14.3500004       23.1379795    
   14.3999996       23.2899837    
   14.4499998       23.4417763    
   14.5000000       23.5934544    
   14.5500002       23.7449856    
   14.6000004       23.8961906    
   14.6499996       24.0467911    
   14.6999998       24.1964741    
   14.7500000       24.3449745    
   14.8000002       24.4921360    
   14.8500004       24.6379204    
   14.8999996       24.7823696    
   14.9499998       24.9255638    
   15.0000000       25.0675373    
   15.0500002       25.2082577    
   15.1000004       25.3476048    
   15.1499996       25.4854183    
   15.1999998       25.6215439    
   15.2500000       25.7558670    
   15.3000002       25.8883362    
   15.3500004       26.0189342    
   15.3999996       26.1476288    
   15.4499998       26.2743111    
   15.5000000       26.3987732    
   15.5500002       26.5207024    
   15.6000004       26.6397457    
   15.6499996       26.7555714    
   15.6999998       26.8679428    
   15.7500000       26.9767647    
   15.8000002       27.0820637    
   15.8500004       27.1839428    
   15.8999996       27.2824860    
   15.9499998       27.3776855    
   16.0000000       27.4693928    
   16.0499992       27.5573292    
   16.1000004       27.6411362    
   16.1499996       27.7204475    
   16.2000008       27.7949581    
   16.2500000       27.8644657    
   16.2999992       27.9288712    
   16.3500004       27.9881268    
   16.3999996       28.0421848    
   16.4500008       28.0909462    
   16.5000000       28.1342430    
   16.5499992       28.1718483    
   16.6000004       28.2035217    
   16.6499996       28.2290478    
   16.7000008       28.2482758    
   16.7500000       28.2611065    
   16.7999992       28.2674732    
   16.8500004       28.2672939    
   16.8999996       28.2604504    
   16.9500008       28.2467613    
   17.0000000       28.2260246    
   17.0499992       28.1980381    
   17.1000004       28.1626606    
   17.1499996       28.1198158    
   17.2000008       28.0694981    
   17.2500000       28.0117264    
   17.2999992       27.9464836    
   17.3500004       27.8736801    
   17.3999996       27.7931423    
   17.4500008       27.7046375    
   17.5000000       27.6079292    
   17.5499992       27.5028553    
   17.6000004       27.3893776    
   17.6499996       27.2675858    
   17.7000008       27.1376667    
   17.7500000       26.9998379    
   17.7999992       26.8542709    
   17.8500004       26.7010384    
   17.8999996       26.5401077    
   17.9500008       26.3713741    
   18.0000000       26.1947155    
   18.0499992       26.0100765    
   18.1000004       25.8174934    
   18.1499996       25.6170979    
   18.2000008       25.4090805    
   18.2500000       25.1936340    
   18.2999992       24.9709015    
   18.3500004       24.7409725    
   18.3999996       24.5038910    
   18.4500008       24.2597256    
   18.5000000       24.0086174    
   18.5499992       23.7508297    
   18.6000004       23.4867287    
   18.6499996       23.2167454    
   18.7000008       22.9412937    
   18.7500000       22.6606903    
   18.7999992       22.3751316    
   18.8500004       22.0846882    
   18.8999996       21.7893734    
   18.9500008       21.4892235    
   19.0000000       21.1843834    
   19.0499992       20.8751450    
   19.1000004       20.5619450    
   19.1499996       20.2452927    
   19.2000008       19.9257145    
   19.2500000       19.6036625    
   19.2999992       19.2794857    
   19.3500004       18.9534435    
   19.3999996       18.6257439    
   19.4500008       18.2966175    
   19.5000000       17.9663563    
   19.5499992       17.6353378    
   19.6000004       17.3039894    
   19.6499996       16.9727421    
   19.7000008       16.6419716    
   19.7500000       16.3119793    
   19.7999992       15.9829979    
   19.8500004       15.6552410    
   19.8999996       15.3289680    
   19.9500008       15.0045300    
   20.0000000       14.6823835    
   20.0499992       14.3630571    
   20.1000004       14.0470839    
   20.1499996       13.7349215    
   20.2000008       13.4268970    
   20.2500000       13.1231976    
   20.2999992       12.8239088    
   20.3500004       12.5290871    
   20.3999996       12.2388430    
   20.4500008       11.9533968    
   20.5000000       11.6730938    
   20.5499992       11.3983612    
   20.6000004       11.1296396    
   20.6499996       10.8673038    
   20.7000008       10.6116171    
   20.7500000       10.3627119    
   20.7999992       10.1206312    
   20.8500004       9.88538742    
   20.8999996       9.65702534    
   20.9500008       9.43566418    
   21.0000000       9.22149372    
   21.0499992       9.01475620    
   21.1000004       8.81567860    
   21.1499996       8.62443542    
   21.2000008       8.44112110    
   21.2500000       8.26575089    
   21.2999992       8.09828854    
   21.3500004       7.93868685    
   21.3999996       7.78691769    
   21.4500008       7.64298153    
   21.5000000       7.50690126    
   21.5499992       7.37869978    
   21.6000004       7.25837469    
   21.6499996       7.14588928    
   21.7000008       7.04117203    
   21.7500000       6.94413280    
   21.7999992       6.85468292    
   21.8500004       6.77274084    
   21.8999996       6.69822884    
   21.9500008       6.63105822    
   22.0000000       6.57110596    
   22.0499992       6.51820898    
   22.1000004       6.47216320    
   22.1499996       6.43274784    
   22.2000008       6.39975500    
   22.2500000       6.37301826    
   22.2999992       6.35241604    
   22.3500004       6.33786011    
   22.3999996       6.32926035    
   22.4500008       6.32648945    
   22.5000000       6.32935429    
   22.5499992       6.33759165    
   22.6000004       6.35089302    
   22.6499996       6.36894417    
   22.7000008       6.39146662    
   22.7500000       6.41824389    
   22.7999992       6.44912052    
   22.8500004       6.48397255    
   22.8999996       6.52266598    
   22.9500008       6.56502342    
   23.0000000       6.61080599    
   23.0499992       6.65973330    
   23.1000004       6.71151543    
   23.1499996       6.76590157    
   23.2000008       6.82270765    
   23.2500000       6.88181543    
   23.2999992       6.94314051    
   23.3500004       7.00658321    
   23.3999996       7.07197952    
   23.4500008       7.13907814    
   23.5000000       7.20755386    
   23.5499992       7.27705765    
   23.6000004       7.34728098    
   23.6499996       7.41801214    
   23.7000008       7.48915958    
   23.7500000       7.56073093    
   23.7999992       7.63277483    
   23.8500004       7.70531130    
   23.8999996       7.77827168    
   23.9500008       7.85147285    
   24.0000000       7.92464304    
   24.0499992       7.99747229    
   24.1000004       8.06968689    
   24.1499996       8.14109612    
   24.2000008       8.21161938    
   24.2500000       8.28125954    
   24.2999992       8.35005379    
   24.3500004       8.41802311    
   24.3999996       8.48513031    
   24.4500008       8.55127621    
   24.5000000       8.61632824    
   24.5499992       8.68016434    
   24.6000004       8.74271297    
   24.6499996       8.80396748    
   24.7000008       8.86396503    
   24.7500000       8.92275143    
   24.7999992       8.98032188    
   24.8500004       9.03659439    
   24.8999996       9.09141445    
   24.9500008       9.14459324    
   25.0000000       9.19596958    
   25.0499992       9.24546337    
   25.1000004       9.29311371    
   25.1499996       9.33906937    
   25.2000008       9.38353539    
   25.2500000       9.42670727    
   25.2999992       9.46870232    
   25.3500004       9.50952530    
   25.3999996       9.54907417    
   25.4500008       9.58718109    
   25.5000000       9.62368011    
   25.5499992       9.65846539    
   25.6000004       9.69152164    
   25.6499996       9.72292805    
   25.7000008       9.75282001    
   25.7500000       9.78135300    
   25.7999992       9.80865383    
   25.8500004       9.83480263    
   25.8999996       9.85983467    
   25.9500008       9.88375568    
   26.0000000       9.90656567    
   26.0499992       9.92826843    
   26.1000004       9.94887066    
   26.1499996       9.96836567    
   26.2000008       9.98672485    
   26.2500000       10.0038967    
   26.2999992       10.0198288    
   26.3500004       10.0344992    
   26.3999996       10.0479507    
   26.4500008       10.0603018    
   26.5000000       10.0717402    
   26.5499992       10.0824766    
   26.6000004       10.0926924    
   26.6499996       10.1024828    
   26.7000008       10.1118364    
   26.7500000       10.1206484    
   26.7999992       10.1287632    
   26.8500004       10.1360483    
   26.8999996       10.1424408    
   26.9500008       10.1479788    
   27.0000000       10.1527863    
   27.0499992       10.1570292    
   27.1000004       10.1608458    
   27.1499996       10.1643085    
   27.2000008       10.1674099    
   27.2500000       10.1700811    
   27.2999992       10.1722517    
   27.3500004       10.1738997    
   27.3999996       10.1750822    
   27.4500008       10.1759319    
   27.5000000       10.1766071    
   27.5499992       10.1772289    
   27.6000004       10.1778259    
   27.6499996       10.1783123    
   27.7000008       10.1785173    
   27.7500000       10.1782484    
   27.7999992       10.1773710    
   27.8500004       10.1758728    
   27.8999996       10.1738834    
   27.9500008       10.1716328    
   28.0000000       10.1693859    
   28.0499992       10.1673498    
   28.1000004       10.1656151    
   28.1499996       10.1641321    
   28.2000008       10.1627483    
   28.2500000       10.1612759    
   28.2999992       10.1595659    
   28.3500004       10.1575594    
   28.3999996       10.1552963    
   28.4500008       10.1528797    
   28.5000000       10.1504164    
   28.5499992       10.1479616    
   28.6000004       10.1454897    
   28.6499996       10.1429186    
   28.7000008       10.1401491    
   28.7500000       10.1371336    
   28.7999992       10.1339130    
   28.8500004       10.1306257    
   28.8999996       10.1274614    
   28.9500008       10.1245975    
   29.0000000       10.1221285    
   29.0499992       10.1200256    
   29.1000004       10.1181459    
   29.1499996       10.1162777    
   29.2000008       10.1142273    
   29.2500000       10.1118717    
   29.2999992       10.1092100    
   29.3500004       10.1063356    
   29.3999996       10.1034002    
   29.4500008       10.1005411    
   29.5000000       10.0978289    
   29.5499992       10.0952549    
   29.6000004       10.0927486    
   29.6499996       10.0902395    
   29.7000008       10.0876923    
   29.7500000       10.0851507    
   29.7999992       10.0827131    
   29.8500004       10.0804911    
   29.8999996       10.0785446    
   29.9500008       10.0768375    
   30.0000000       10.0752316    
   30.0499992       10.0735273    
   30.1000004       10.0715389    
   30.1499996       10.0691738    
   30.2000008       10.0664806    
   30.2500000       10.0636492    
   30.2999992       10.0609474    
   30.3500004       10.0586281    
   30.3999996       10.0568295    
   30.4500008       10.0555267    
   30.5000000       10.0545330    
   30.5499992       10.0535603    
   30.6000004       10.0523291    
   30.6499996       10.0506563    
   30.7000008       10.0485201    
   30.7500000       10.0460577    
   30.7999992       10.0435047    
   30.8500004       10.0411062    
   30.8999996       10.0390291    
   30.9500008       10.0373116    
   31.0000000       10.0358686    
   31.0499992       10.0345421    
   31.1000004       10.0331783    
   31.1499996       10.0316916    
   31.2000008       10.0300903    
   31.2500000       10.0284634    
   31.2999992       10.0269279    
   31.3500004       10.0255699    
   31.3999996       10.0243959    
   31.4500008       10.0233259    
   31.5000000       10.0222311    
   31.5499992       10.0209808    
   31.6000004       10.0194979    
   31.6499996       10.0177860    
   31.7000008       10.0159273    
   31.7500000       10.0140352    
   31.7999992       10.0122156    
   31.8500004       10.0105267    
   31.8999996       10.0089607    
   31.9500008       10.0074739    
   32.0000000       10.0060148    
   32.0499992       10.0045624    
   32.0999985       10.0031462    
   32.1500015       10.0018282    
   32.2000008       10.0006666    
   32.2500000       9.99967098    
   32.2999992       9.99878120    
   32.3499985       9.99787235    
   32.4000015       9.99679375    
   32.4500008       9.99542809    
   32.5000000       9.99374294    
   32.5499992       9.99181080    
   32.5999985       9.98978996    
   32.6500015       9.98786640    
   32.7000008       9.98618793    
   32.7500000       9.98480415    
   32.7999992       9.98365402    