  -10.0000000       0.00000000    
  -9.94999981       0.00000000    
  -9.89999962       0.00000000    
  -9.85000038       0.00000000    
  -9.80000019       0.00000000    
  -9.75000000       0.00000000    
  -9.69999981       0.00000000    
  -9.64999962       0.00000000    
  -9.60000038       0.00000000    
  -9.55000019      -2.84522130E-26
  -9.50000000      -7.24084627E-25
  -9.44999981      -7.51838243E-24
  -9.39999962      -4.66384002E-23
  -9.35000038      -1.98331231E-22
  -9.30000019      -6.08004054E-22
  -9.25000000      -1.31887658E-21
  -9.19999981      -1.67243662E-21
  -9.14999962       6.76686197E-22
  -9.10000038       9.82245877E-21
  -9.05000019       2.73063629E-20
  -9.00000000       3.93855263E-20
  -8.94999981      -1.76148515E-21
  -8.89999962      -1.81349462E-19
  -8.85000038      -5.60572857E-19
  -8.80000019      -9.93006130E-19
  -8.75000000      -8.28086065E-19
  -8.69999981       1.29501691E-18
  -8.64999962       7.06859003E-18
  -8.60000038       1.68841046E-17
  -8.55000019       2.66500173E-17
  -8.50000000       2.41394778E-17
  -8.44999981      -1.16735947E-17
  -8.39999962      -1.02577602E-16
  -8.35000038      -2.49150612E-16
  -8.30000019      -3.96198152E-16
  -8.25000000      -4.01385991E-16
  -8.19999981      -4.15559228E-17
  -8.14999962       8.97838513E-16
  -8.10000038       2.42097009E-15
  -8.05000019       4.03979150E-15
  -8.00000000       4.55071881E-15
  -7.94999981       2.12176205E-15
  -7.90000010      -5.02159248E-15
  -7.84999990      -1.71733524E-14
  -7.80000019      -3.12599610E-14
  -7.75000000      -3.93871574E-14
  -7.69999981      -2.93061101E-14
  -7.65000010       1.16206373E-14
  -7.59999990       8.82861628E-14
  -7.55000019       1.87066549E-13
  -7.50000000       2.67050867E-13
  -7.44999981       2.60681830E-13
  -7.40000010       9.15595521E-14
  -7.34999990      -2.87074889E-13
  -7.30000019      -8.39439195E-13
  -7.25000000      -1.39973070E-12
  -7.19999981      -1.66197037E-12
  -7.15000010      -1.24138547E-12
  -7.09999990       1.74150326E-13
  -7.05000019       2.60133473E-12
  -7.00000000       5.53839396E-12
  -6.94999981       7.86127760E-12
  -6.90000010       7.97397565E-12
  -6.84999990       4.30099923E-12
  -6.80000019      -3.91239992E-12
  -6.75000000      -1.57060268E-11
  -6.69999981      -2.78066598E-11
  -6.65000010      -3.47971825E-11
  -6.59999990      -3.04148338E-11
  -6.55000019      -9.99092302E-12
  -6.50000000       2.65013896E-11
  -6.44999981       7.19012350E-11
  -6.40000010       1.11268897E-10
  -6.34999990       1.24527069E-10
  -6.30000019       9.27465812E-11
  -6.25000000       7.00983108E-12
  -6.19999981      -1.22903715E-10
  -6.15000010      -2.63971900E-10
  -6.09999990      -3.63433061E-10
  -6.05000019      -3.62395364E-10
  -6.00000000      -2.18021934E-10
  -5.94999981       7.16821186E-11
  -5.90000010       4.50105730E-10
  -5.84999990       8.01812727E-10
  -5.80000019       9.77015580E-10
  -5.75000000       8.40041536E-10
  -5.69999981       3.30489081E-10
  -5.65000010      -4.83992346E-10
  -5.59999990      -1.38869549E-09
  -5.55000019      -2.05701456E-09
  -5.50000000      -2.14458296E-09
  -5.44999981      -1.42395318E-09
  -5.40000010       8.22396110E-11
  -5.34999990       2.02569805E-09
  -5.30000019       3.76564691E-09
  -5.25000000       4.53379023E-09
  -5.19999981       3.70677600E-09
  -5.15000010       1.10907550E-09
  -5.09999990      -2.76871326E-09
  -5.05000019      -6.75347733E-09
  -5.00000000      -9.24690013E-09
  -4.94999981      -8.73865513E-09
  -4.90000010      -4.44739801E-09
  -4.84999990       3.13042703E-09
  -4.80000019       1.20141408E-08
  -4.75000000       1.90628153E-08
  -4.69999981       2.08611297E-08
  -4.65000010       1.49834065E-08
  -4.59999990       1.24809452E-09
  -4.55000019      -1.75331056E-08
  -4.50000000      -3.57496646E-08
  -4.44999981      -4.63223735E-08
  -4.40000010      -4.29730882E-08
  -4.34999990      -2.28217534E-08
  -4.30000019       1.15908465E-08
  -4.25000000       5.17728509E-08
  -4.19999981       8.48317185E-08
  -4.15000010       9.70557394E-08
  -4.09999990       7.87018521E-08
  -4.05000019       2.85128685E-08
  -4.00000000      -4.37646683E-08
  -3.95000005      -1.18255713E-07
  -3.90000010      -1.69689372E-07
  -3.84999990      -1.75143214E-07
  -3.79999995      -1.22667728E-07
  -3.75000000      -1.78787225E-08
  -3.70000005       1.14277903E-07
  -3.65000010       2.34224885E-07
  -3.59999990       2.98567301E-07
  -3.54999995       2.74416806E-07
  -3.50000000       1.52862810E-07
  -3.45000005      -4.33070930E-08
  -3.40000010      -2.61427488E-07
  -3.34999990      -4.31448825E-07
  -3.29999995      -4.86705915E-07
  -3.25000000      -3.87255227E-07
  -3.20000005      -1.38196128E-07
  -3.15000010       2.04154588E-07
  -3.09999990       5.42369776E-07
  -3.04999995       7.63525975E-07
  -3.00000000       7.74148816E-07
  -2.95000005       5.34206549E-07
  -2.90000010       7.86561642E-08
  -2.84999990      -4.82437201E-07
  -2.79999995      -9.88296392E-07
  -2.75000000      -1.27170915E-06
  -2.70000005      -1.21137589E-06
  -2.65000010      -7.76368836E-07
  -2.59999990      -4.73784176E-08
  -2.54999995       7.94813843E-07
  -2.50000000       1.51365862E-06
  -2.45000005       1.88340891E-06
  -2.40000010       1.75917694E-06
  -2.34999990       1.12878035E-06
  -2.29999995       1.28479059E-07
  -2.25000000      -9.85416250E-07
  -2.20000005      -1.90382161E-06
  -2.15000010      -2.35318839E-06
  -2.09999990      -2.17913680E-06
  -2.04999995      -1.39947610E-06
  -2.00000000      -2.08595139E-07
  -1.95000005       1.07074391E-06
  -1.89999998       2.07618587E-06
  -1.85000002       2.51015081E-06
  -1.79999995       2.22910126E-06
  -1.75000000       1.29062380E-06
  -1.70000005      -5.66972318E-08
  -1.64999998      -1.43875934E-06
  -1.60000002      -2.45839738E-06
  -1.54999995      -2.80549352E-06
  -1.50000000      -2.34341383E-06
  -1.45000005      -1.14793158E-06
  -1.39999998       5.10791608E-07
  -1.35000002       2.23599068E-06
  -1.29999995       3.60119429E-06
  -1.25000000       4.24931523E-06
  -1.20000005       3.96942005E-06
  -1.14999998       2.73610272E-06
  -1.10000002       7.08967946E-07
  -1.04999995      -1.79949518E-06
  -1.00000000      -4.37400104E-06
 -0.949999988      -6.55229269E-06
 -0.899999976      -7.88082343E-06
 -0.850000024      -7.97165285E-06
 -0.800000012      -6.56543261E-06
 -0.750000000      -3.60202785E-06
 -0.699999988       7.09594701E-07
 -0.649999976       5.84338113E-06
 -0.600000024       1.09603498E-05
 -0.550000012       1.49939315E-05
 -0.500000000       1.68299666E-05
 -0.449999988       1.55661983E-05
 -0.400000006       1.08014592E-05
 -0.349999994       2.87579928E-06
 -0.300000012      -7.02745410E-06
 -0.250000000      -1.69892719E-05
 -0.200000003      -2.46967193E-05
 -0.150000006      -2.79759370E-05
 -0.100000001      -2.54027182E-05
  -5.00000007E-02  -1.68267197E-05
   5.55111512E-16  -3.63590061E-06
   5.00000007E-02   1.13685974E-05
  0.100000001       2.45241099E-05
  0.150000006       3.21992266E-05
  0.200000003       3.18237689E-05
  0.250000000       2.27750916E-05
  0.300000012       6.83560529E-06
  0.349999994      -1.19818933E-05
  0.400000006      -2.82879919E-05
  0.449999988      -3.67016655E-05
  0.500000000      -3.34388533E-05
  0.550000012      -1.76686626E-05
  0.600000024       7.79280617E-06
  0.649999976       3.67472094E-05
  0.699999988       6.08947921E-05
  0.750000000       7.19023519E-05
  0.800000012       6.37736011E-05
  0.850000024       3.48905742E-05
  0.899999976      -1.08880731E-05
  0.949999988      -6.44917454E-05
   1.00000000      -1.13351947E-04
   1.04999995      -1.44260193E-04
   1.10000002      -1.46720122E-04
   1.14999998      -1.15947973E-04
   1.20000005      -5.46963311E-05
   1.25000000       2.66783427E-05
   1.29999995       1.12061396E-04
   1.35000002       1.83004304E-04
   1.39999998       2.22959919E-04
   1.45000005       2.21307928E-04
   1.50000000       1.76153349E-04
   1.54999995       9.51503680E-05
   1.60000002      -5.92302513E-06
   1.64999998      -1.06557178E-04
   1.70000005      -1.86090299E-04
   1.75000000      -2.28390170E-04
   1.79999995      -2.25518263E-04
   1.85000002      -1.79502662E-04
   1.89999998      -1.01807425E-04
   1.95000005      -1.06420766E-05
   2.00000000       7.32347107E-05
   2.04999995       1.31226276E-04
   2.09999990       1.51043307E-04
   2.15000010       1.29370615E-04
   2.20000005       7.25127466E-05
   2.25000000      -5.05430489E-06
   2.29999995      -8.38444103E-05
   2.34999990      -1.43518686E-04
   2.40000010      -1.67164573E-04
   2.45000005      -1.44854552E-04
   2.50000000      -7.58315364E-05
   2.54999995       3.10457690E-05
   2.59999990       1.58649651E-04
   2.65000010       2.84483482E-04
   2.70000005       3.84666375E-04
   2.75000000       4.38375922E-04
   2.79999995       4.32040164E-04
   2.84999990       3.62565625E-04
   2.90000010       2.38967754E-04
   2.95000005       8.19467386E-05
   3.00000000      -7.87667959E-05
   3.04999995      -2.09099366E-04
   3.09999990      -2.76738836E-04
   3.15000010      -2.57648586E-04
   3.20000005      -1.41726967E-04
   3.25000000       6.36843761E-05
   3.29999995       3.33477219E-04
   3.34999990       6.28123642E-04
   3.40000010       9.00419487E-04
   3.45000005       1.10454054E-03
   3.50000000       1.20566180E-03
   3.54999995       1.18806062E-03
   3.59999990       1.05975859E-03
   3.65000010       8.52377969E-04
   3.70000005       6.15890545E-04
   3.75000000       4.09104628E-04
   3.79999995       2.87786679E-04
   3.84999990       2.92978220E-04
   3.90000010       4.42150340E-04
   3.95000005       7.25286081E-04
   4.00000000       1.10690086E-03
   4.05000019       1.53365708E-03
   4.09999990       1.94592471E-03
   4.15000010       2.29071057E-03
   4.19999981       2.53306841E-03
   4.25000000       2.66347104E-03
   4.30000019       2.69959238E-03
   4.34999990       2.68226862E-03
   4.40000010       2.66671856E-03
   4.44999981       2.71112914E-03
   4.50000000       2.86516966E-03
   4.55000019       3.16084642E-03
   4.59999990       3.60739930E-03
   4.65000010       4.19093249E-03
   4.69999981       4.87839291E-03
   4.75000000       5.62469149E-03
   4.80000019       6.38130866E-03
   4.84999990       7.10475026E-03
   4.90000010       7.76355155E-03
   4.94999981       8.34306981E-03
   5.00000000       8.84781312E-03
   5.05000019       9.30138957E-03
   5.09999990       9.74432472E-03
   5.15000010       1.02299675E-02
   5.19999981       1.08186649E-02
   5.25000000       1.15704909E-02
   5.30000019       1.25370333E-02
   5.34999990       1.37531906E-02
   5.40000010       1.52303595E-02
   5.44999981       1.69526283E-02
   5.50000000       1.88774653E-02
   5.55000019       2.09417641E-02
   5.59999990       2.30729561E-02
   5.65000010       2.52036806E-02
   5.69999981       2.72872392E-02
   5.75000000       2.93103792E-02
   5.80000019       3.13001536E-02
   5.84999990       3.33225764E-02
   5.90000010       3.54726538E-02
   5.94999981       3.78573984E-02
   6.00000000       4.05754969E-02
   6.05000019       4.36982289E-02
   6.09999990       4.72563654E-02
   6.15000010       5.12363873E-02
   6.19999981       5.55871502E-02
   6.25000000       6.02355078E-02
   6.30000019       6.51070178E-02
   6.34999990       7.01465979E-02
   6.40000010       7.53339604E-02
   6.44999981       8.06901678E-02
   6.50000000       8.62739906E-02
   6.55000019       9.21695158E-02
   6.59999990       9.84689370E-02
   6.65000010      0.105255194    
   6.69999981      0.112589404    
   6.75000000      0.120505795    
   6.80000019      0.129015014    
   6.84999990      0.138113767    
   6.90000010      0.147797078    
   6.94999981      0.158069089    
   7.00000000      0.168948710    
   7.05000019      0.180468813    
   7.09999990      0.192669570    
   7.15000010      0.205588922    
   7.19999981      0.219253853    
   7.25000000      0.233676061    
   7.30000019      0.248854294    
   7.34999990      0.264782757    
   7.40000010      0.281463832    
   7.44999981      0.298920721    
   7.50000000      0.317206085    
   7.55000019      0.336403519    
   7.59999990      0.356620878    
   7.65000010      0.377976269    
   7.69999981      0.400580764    
   7.75000000      0.424521983    
   7.80000019      0.449852854    
   7.84999990      0.476588786    
   7.90000010      0.504714072    
   7.94999981      0.534195364    
   8.00000000      0.564999580    
   8.05000019      0.597111702    
   8.10000038      0.630547702    
   8.14999962      0.665360689    
   8.19999981      0.701638222    
   8.25000000      0.739493430    
   8.30000019      0.779050231    
   8.35000038      0.820428789    
   8.39999962      0.863732159    
   8.44999981      0.909038186    
   8.50000000      0.956396937    
   8.55000019       1.00583458    
   8.60000038       1.05736029    
   8.64999962       1.11097610    
   8.69999981       1.16668618    
   8.75000000       1.22450304    
   8.80000019       1.28445280    
   8.85000038       1.34657371    
   8.89999962       1.41091561    
   8.94999981       1.47753608    
   9.00000000       1.54649782    
   9.05000019       1.61786723    
   9.10000038       1.69171369    
   9.14999962       1.76811039    
   9.19999981       1.84713411    
   9.25000000       1.92886376    
   9.30000019       2.01337504    
   9.35000038       2.10073543    
   9.39999962       2.19099474    
   9.44999981       2.28417993    
   9.50000000       2.38029075    
   9.55000019       2.47930312    
   9.60000038       2.58117652    
   9.64999962       2.68586588    
   9.69999981       2.79333854    
   9.75000000       2.90358615    
   9.80000019       3.01663208    
   9.85000038       3.13253188    
   9.89999962       3.25136352    
   9.94999981       3.37321329    
   10.0000000       3.49815822    
   10.0500002       3.62624931    
   10.1000004       3.75750446    
   10.1499996       3.89190578    
   10.1999998       4.02940702    
   10.2500000       4.16994810    
   10.3000002       4.31346655    
   10.3500004       4.45991278    
   10.3999996       4.60925150    
   10.4499998       4.76146126    
   10.5000000       4.91652822    
   10.5500002       5.07443142    
   10.6000004       5.23513746    
   10.6499996       5.39859438    
   10.6999998       5.56473446    
   10.7500000       5.73348188    
   10.8000002       5.90476179    
   10.8500004       6.07851315    
   10.8999996       6.25469112    
   10.9499998       6.43326998    
   11.0000000       6.61423540    
   11.0500002       6.79757452    
   11.1000004       6.98326397    
   11.1499996       7.17125893    
   11.1999998       7.36148643    
   11.2500000       7.55384445    
   11.3000002       7.74820709    
   11.3500004       7.94443321    
   11.3999996       8.14237595    
   11.4499998       8.34189606    
   11.5000000       8.54286861    
   11.5500002       8.74519062    
   11.6000004       8.94878101    
   11.6499996       9.15358257    
   11.6999998       9.35954571    
   11.7500000       9.56663036    
   11.8000002       9.77478695    
   11.8500004       9.98395061    
   11.8999996       10.1940346    
   11.9499998       10.4049273    
   12.0000000       10.6164999    
   12.0500002       10.8286104    
   12.1000004       11.0411205    
   12.1499996       11.2538977    
   12.1999998       11.4668322    
   12.2500000       11.6798296    
   12.3000002       11.8928061    
   12.3500004       12.1056833    
   12.3999996       12.3183765    
   12.4499998       12.5307884    
   12.5000000       12.7428122    
   12.5500002       12.9543343    
   12.6000004       13.1652479    
   12.6499996       13.3754644    
   12.6999998       13.5849247    
   12.7500000       13.7935953    
   12.8000002       14.0014601    
   12.8500004       14.2085094    
   12.8999996       14.4147196    
   12.9499998       14.6200447    
   13.0000000       14.8244066    
   13.0500002       15.0277014    
   13.1000004       15.2298126    
   13.1499996       15.4306326    
   13.1999998       15.6300726    
   13.2500000       15.8280783    
   13.3000002       16.0246258    
   13.3500004       16.2197170    
   13.3999996       16.4133644    
   13.4499998       16.6055698    
   13.5000000       16.7963295    
   13.5500002       16.9856110    
   13.6000004       17.1733856    
   13.6499996       17.3596153    
   13.6999998       17.5442944    
   13.7500000       17.7274265    
   13.8000002       17.9090519    
   13.8500004       18.0892315    
   13.8999996       18.2680244    
   13.9499998       18.4454880    
   14.0000000       18.6216488    
   14.0500002       18.7965145    
   14.1000004       18.9700623    
   14.1499996       19.1422558    
   14.1999998       19.3130550    
   14.2500000       19.4824409    
   14.3000002       19.6504097    
   14.3500004       19.8169937    
   14.3999996       19.9822598    
   14.4499998       20.1462898    
   14.5000000       20.3091946    
   14.5500002       20.4710884    
   14.6000004       20.6320858    
   14.6499996       20.7922897    
   14.6999998       20.9517841    
   14.7500000       21.1106281    
   14.8000002       21.2688560    
   14.8500004       21.4264698    
   14.8999996       21.5834637    
   14.9499998       21.7398186    
   15.0000000       21.8955250    
   15.0500002       22.0505924    
   15.1000004       22.2050610    
   15.1499996       22.3590069    
   15.1999998       22.5125332    
   15.2500000       22.6657658    
   15.3000002       22.8188343    
   15.3500004       22.9718666    
   15.3999996       23.1249714    
   15.4499998       23.2782307    
   15.5000000       23.4316978    
   15.5500002       23.5854053    
   15.6000004       23.7393589    
   15.6499996       23.8935471    
   15.6999998       24.0479565    
   15.7500000       24.2025719    
   15.8000002       24.3573799    
   15.8500004       24.5123920    
   15.8999996       24.6676311    
   15.9499998       24.8231544    
   16.0000000       24.9790344    
   16.0499992       25.1353664    
   16.1000004       25.2922478    
   16.1499996       25.4497776    
   16.2000008       25.6080360    
   16.2500000       25.7670708    
   16.2999992       25.9269047    
   16.3500004       26.0875282    
   16.3999996       26.2489147    
   16.4500008       26.4110241    
   16.5000000       26.5738125    
   16.5499992       26.7372360    
   16.6000004       26.9012527    
   16.6499996       27.0658226    
   16.7000008       27.2308979    
   16.7500000       27.3964405    
   16.7999992       27.5624161    
   16.8500004       27.7288094    
   16.8999996       27.8956299    
   16.9500008       28.0629177    
   17.0000000       28.2307377    
   17.0499992       28.3991623    
   17.1000004       28.5682468    
   17.1499996       28.7380066    
   17.2000008       28.9084053    
   17.2500000       29.0793457    
   17.2999992       29.2506809    
   17.3500004       29.4222431    
   17.3999996       29.5938568    
   17.4500008       29.7653790    
   17.5000000       29.9366932    
   17.5499992       30.1077271    
   17.6000004       30.2784290    
   17.6499996       30.4487572    
   17.7000008       30.6186619    
   17.7500000       30.7880764    
   17.7999992       30.9569206    
   17.8500004       31.1251106    
   17.8999996       31.2925777    
   17.9500008       31.4592648    
   18.0000000       31.6251450    
   18.0499992       31.7901783    
   18.1000004       31.9543133    
   18.1499996       32.1174507    
   18.2000008       32.2794304    
   18.2500000       32.4400215    
   18.2999992       32.5989609    
   18.3500004       32.7559433    
   18.3999996       32.9106941    
   18.4500008       33.0629654    
   18.5000000       33.2125778    
   18.5499992       33.3594055    
   18.6000004       33.5033760    
   18.6499996       33.6444359    
   18.7000008       33.7825508    
   18.7500000       33.9176521    
   18.7999992       34.0496635    
   18.8500004       34.1784630    
   18.8999996       34.3039093    
   18.9500008       34.4258308    
   19.0000000       34.5440102    
   19.0499992       34.6582108    
   19.1000004       34.7681465    
   19.1499996       34.8734970    
   19.2000008       34.9739380    
   19.2500000       35.0691414    
   19.2999992       35.1588211    
   19.3500004       35.2427559    
   19.3999996       35.3207893    
   19.4500008       35.3928223    
   19.5000000       35.4588089    
   19.5499992       35.5186996    
   19.6000004       35.5724220    
   19.6499996       35.6198425    
   19.7000008       35.6607780    
   19.7500000       35.6949844    
   19.7999992       35.7221985    
   19.8500004       35.7421455    
   19.8999996       35.7545815    
   19.9500008       35.7592850    
   20.0000000       35.7560692    
   20.0499992       35.7447510    
   20.1000004       35.7251549    
   20.1499996       35.6970901    
   20.2000008       35.6603737    
   20.2500000       35.6148224    
   20.2999992       35.5602837    
   20.3500004       35.4966545    
   20.3999996       35.4238663    
   20.4500008       35.3419037    
   20.5000000       35.2507515    
   20.5499992       35.1503792    
   20.6000004       35.0407257    
   20.6499996       34.9216766    
   20.7000008       34.7930946    
   20.7500000       34.6548157    
   20.7999992       34.5067062    
   20.8500004       34.3486786    
   20.8999996       34.1807022    
   20.9500008       34.0028152    
   21.0000000       33.8150978    
   21.0499992       33.6176414    
   21.1000004       33.4105415    
   21.1499996       33.1938629    
   21.2000008       32.9676552    
   21.2500000       32.7319489    
   21.2999992       32.4867897    
   21.3500004       32.2322464    
   21.3999996       31.9684200    
   21.4500008       31.6954460    
   21.5000000       31.4134922    
   21.5499992       31.1227398    
   21.6000004       30.8233757    
   21.6499996       30.5155983    
   21.7000008       30.1996117    
   21.7500000       29.8756485    
   21.7999992       29.5439682    
   21.8500004       29.2048607    
   21.8999996       28.8586445    
   21.9500008       28.5056438    
   22.0000000       28.1461735    
   22.0499992       27.7805367    
   22.1000004       27.4090137    
   22.1499996       27.0318775    
   22.2000008       26.6494083    
   22.2500000       26.2619228    
   22.2999992       25.8697739    
   22.3500004       25.4733715    
   22.3999996       25.0731621    
   22.4500008       24.6696091    
   22.5000000       24.2631779    
   22.5499992       23.8543110    
   22.6000004       23.4434299    
   22.6499996       23.0309296    
   22.7000008       22.6171951    
   22.7500000       22.2026196    
   22.7999992       21.7876110    
   22.8500004       21.3725910    
   22.8999996       20.9579983    
   22.9500008       20.5442657    
   23.0000000       20.1318283    
   23.0499992       19.7211018    
   23.1000004       19.3124962    
   23.1499996       18.9064255    
   23.2000008       18.5033131    
   23.2500000       18.1036072    
   23.2999992       17.7077751    
   23.3500004       17.3162823    
   23.3999996       16.9295807    
   23.4500008       16.5480881    
   23.5000000       16.1721668    
   23.5499992       15.8021307    
   23.6000004       15.4382582    
   23.6499996       15.0808086    
   23.7000008       14.7300549    
   23.7500000       14.3862953    
   23.7999992       14.0498600    
   23.8500004       13.7211008    
   23.8999996       13.4003716    
   23.9500008       13.0879993    
   24.0000000       12.7842646    
   24.0499992       12.4893951    
   24.1000004       12.2035561    
   24.1499996       11.9268761    
   24.2000008       11.6594572    
   24.2500000       11.4013958    
   24.2999992       11.1527948    
   24.3500004       10.9137650    
   24.3999996       10.6844244    
   24.4500008       10.4648857    
   24.5000000       10.2552538    
   24.5499992       10.0556154    
   24.6000004       9.86604023    
   24.6499996       9.68657684    
   24.7000008       9.51724625    
   24.7500000       9.35804749    
   24.7999992       9.20893955    
   24.8500004       9.06984901    
   24.8999996       8.94065666    
   24.9500008       8.82121658    
   25.0000000       8.71136189    
   25.0499992       8.61091995    
   25.1000004       8.51973152    
   25.1499996       8.43765068    
   25.2000008       8.36455059    
   25.2500000       8.30030632    
   25.2999992       8.24478436    
   25.3500004       8.19781876    
   25.3999996       8.15921211    
   25.4500008       8.12872982    
   25.5000000       8.10611820    
   25.5499992       8.09111309    
   25.6000004       8.08346367    
   25.6499996       8.08293056    
   25.7000008       8.08928680    
   25.7500000       8.10230446    
   25.7999992       8.12174034    
   25.8500004       8.14732647    
   25.8999996       8.17876530    
   25.9500008       8.21573925    
   26.0000000       8.25792980    
   26.0499992       8.30503654    
   26.1000004       8.35678577    
   26.1499996       8.41293526    
   26.2000008       8.47325611    
   26.2500000       8.53751945    
   26.2999992       8.60547161    
   26.3500004       8.67682362    
   26.3999996       8.75126457    
   26.4500008       8.82847023    
   26.5000000       8.90813351    
   26.5499992       8.98998260    
   26.6000004       9.07379723    
   26.6499996       9.15939522    
   26.7000008       9.24661350    
   26.7500000       9.33527851    
   26.7999992       9.42518139    
   26.8500004       9.51606846    
   26.8999996       9.60765076    
   26.9500008       9.69963074    
   27.0000000       9.79173374    
   27.0499992       9.88373852    
   27.1000004       9.97548580    
   27.1499996       10.0668736    
   27.2000008       10.1578236    
   27.2500000       10.2482529    
   27.2999992       10.3380413    
   27.3500004       10.4270239    
   27.3999996       10.5149994    
   27.4500008       10.6017637    
   27.5000000       10.6871443    
   27.5499992       10.7710238    
   27.6000004       10.8533516    
   27.6499996       10.9341297    
   27.7000008       11.0133696    
   27.7500000       11.0910692    
   27.7999992       11.1671724    
   27.8500004       11.2415676    
   27.8999996       11.3141060    
   27.9500008       11.3846350    
   28.0000000       11.4530354    
   28.0499992       11.5192480    
   28.1000004       11.5832796    
   28.1499996       11.6451807    
   28.2000008       11.7050161    
   28.2500000       11.7628193    
   28.2999992       11.8185787    
   28.3500004       11.8722296    
   28.3999996       11.9236803    
   28.4500008       11.9728546    
   28.5000000       12.0197229    
   28.5499992       12.0643311    
   28.6000004       12.1067982    
   28.6499996       12.1472845    
   28.7000008       12.1859570    
   28.7500000       12.2229433    
   28.7999992       12.2583027    
   28.8500004       12.2920218    
   28.8999996       12.3240337    
   28.9500008       12.3542547    
   29.0000000       12.3826160    
   29.0499992       12.4090939    
   29.1000004       12.4337130    
   29.1499996       12.4565334    
   29.2000008       12.4776325    
   29.2500000       12.4970827    
   29.2999992       12.5149384    
   29.3500004       12.5312443    
   29.3999996       12.5460463    
   29.4500008       12.5594149    
   29.5000000       12.5714531    
   29.5499992       12.5822897    
   29.6000004       12.5920658    
   29.6499996       12.6009083    
   29.7000008       12.6089039    
   29.7500000       12.6160841    
   29.7999992       12.6224327    
   29.8500004       12.6278982    
   29.8999996       12.6324244    
   29.9500008       12.6359758    
   30.0000000       12.6385431    
   30.0499992       12.6401539    
   30.1000004       12.6408520    
   30.1499996       12.6406927    
   30.2000008       12.6397219    
   30.2500000       12.6379919    
   30.2999992       12.6355572    
   30.3500004       12.6324978    
   30.3999996       12.6289215    
   30.4500008       12.6249599    
   30.5000000       12.6207447    
   30.5499992       12.6163778    
   30.6000004       12.6119061    
   30.6499996       12.6073074    
   30.7000008       12.6025000    
   30.7500000       12.5973730    
   30.7999992       12.5918264    
   30.8500004       12.5858135    
   30.8999996       12.5793581    
   30.9500008       12.5725508    
   31.0000000       12.5655136    
   31.0499992       12.5583572    
   31.1000004       12.5511446    
   31.1499996       12.5438700    
   31.2000008       12.5364695    
   31.2500000       12.5288630    
   31.2999992       12.5209932    
   31.3500004       12.5128717    
   31.3999996       12.5045824    
   31.4500008       12.4962721    
   31.5000000       12.4880991    
   31.5499992       12.4801788    
   31.6000004       12.4725418    
   31.6499996       12.4651241    
   31.7000008       12.4577885    
   31.7500000       12.4503784    
   31.7999992       12.4427814    
   31.8500004       12.4349651    
   31.8999996       12.4269953    
   31.9500008       12.4190054    
   32.0000000       12.4111414    
   32.0499992       12.4034996    
   32.0999985       12.3960838    
   32.1500015       12.3887997    
   32.2000008       12.3814917    
   32.2500000       12.3740034    
   32.2999992       12.3662434    
   32.3499985       12.3582325    
   32.4000015       12.3501072    
   32.4500008       12.3420744    
   32.5000000       12.3343534    
   32.5499992       12.3270931    
   32.5999985       12.3203306    
   32.6500015       12.3139744    
   32.7000008       12.3078403    
   32.7500000       12.3017225    
   32.7999992       12.2954550    