  -10.0000000       0.00000000    
  -9.94999981       0.00000000    
  -9.89999962       0.00000000    
  -9.85000038       0.00000000    
  -9.80000019       0.00000000    
  -9.75000000       0.00000000    
  -9.69999981       0.00000000    
  -9.64999962       0.00000000    
  -9.60000038       0.00000000    
  -9.55000019       1.99424068E-26
  -9.50000000       2.66003256E-25
  -9.44999981       1.69205694E-24
  -9.39999962       6.48335669E-24
  -9.35000038       1.45749704E-23
  -9.30000019       6.98312453E-24
  -9.25000000      -8.72921040E-23
  -9.19999981      -3.95352473E-22
  -9.14999962      -9.21186478E-22
  -9.10000038      -9.60354167E-22
  -9.05000019       1.79653491E-21
  -9.00000000       1.11626513E-20
  -8.94999981       2.79182924E-20
  -8.89999962       3.61532502E-20
  -8.85000038      -1.98628182E-20
  -8.80000019      -2.52573681E-19
  -8.75000000      -7.97424289E-19
  -8.69999981      -1.65903397E-18
  -8.64999962      -2.38849622E-18
  -8.60000038      -1.66879842E-18
  -8.55000019       2.85368212E-18
  -8.50000000       1.38375860E-17
  -8.44999981       3.18557676E-17
  -8.39999962       5.11248407E-17
  -8.35000038       5.46983404E-17
  -8.30000019       1.29420728E-17
  -8.25000000      -1.08623227E-16
  -8.19999981      -3.26278203E-16
  -8.14999962      -5.99622723E-16
  -8.10000038      -7.89858964E-16
  -8.05000019      -6.43853037E-16
  -8.00000000       1.54383825E-16
  -7.94999981       1.82865731E-15
  -7.90000010       4.25339797E-15
  -7.84999990       6.66890893E-15
  -7.80000019       7.53397012E-15
  -7.75000000       4.74167816E-15
  -7.69999981      -3.60996337E-15
  -7.65000010      -1.78876045E-14
  -7.59999990      -3.53688399E-14
  -7.55000019      -4.92061565E-14
  -7.50000000      -4.89166203E-14
  -7.44999981      -2.32757336E-14
  -7.40000010       3.42348898E-14
  -7.34999990       1.18592798E-13
  -7.30000019       2.07723636E-13
  -7.25000000       2.62084245E-13
  -7.19999981       2.32804444E-13
  -7.15000010       7.95281132E-14
  -7.09999990      -2.05181981E-13
  -7.05000019      -5.73101408E-13
  -7.00000000      -9.11202429E-13
  -6.94999981      -1.05777409E-12
  -6.90000010      -8.49281691E-13
  -6.84999990      -1.91514027E-13
  -6.80000019       8.65994288E-13
  -6.75000000       2.08460072E-12
  -6.69999981       3.05368794E-12
  -6.65000010       3.28961316E-12
  -6.59999990       2.40663153E-12
  -6.55000019       3.13353781E-13
  -6.50000000      -2.64152112E-12
  -6.44999981      -5.65671208E-12
  -6.40000010      -7.65227118E-12
  -6.34999990      -7.61839290E-12
  -6.30000019      -5.04457674E-12
  -6.25000000      -2.65658752E-13
  -6.19999981       5.45633764E-12
  -6.15000010       1.02345380E-11
  -6.09999990       1.22249190E-11
  -6.05000019       1.04614000E-11
  -6.00000000       5.51180889E-12
  -5.94999981      -4.27258353E-13
  -5.90000010      -4.24199998E-12
  -5.84999990      -3.35551942E-12
  -5.80000019       2.53730435E-12
  -5.75000000       1.02485650E-11
  -5.69999981       1.32626653E-11
  -5.65000010       3.84732567E-12
  -5.59999990      -2.30519284E-11
  -5.55000019      -6.52539411E-11
  -5.50000000      -1.10088209E-10
  -5.44999981      -1.34712713E-10
  -5.40000010      -1.11648926E-10
  -5.34999990      -1.95281898E-11
  -5.30000019       1.43346029E-10
  -5.25000000       3.47399082E-10
  -5.19999981       5.28265098E-10
  -5.15000010       5.96736494E-10
  -5.09999990       4.64210420E-10
  -5.05000019       7.99997082E-11
  -5.00000000      -5.29689237E-10
  -4.94999981      -1.23641919E-09
  -4.90000010      -1.81408877E-09
  -4.84999990      -1.98440264E-09
  -4.80000019      -1.50239066E-09
  -4.75000000      -2.64846395E-10
  -4.69999981       1.59138214E-09
  -4.65000010       3.64342179E-09
  -4.59999990       5.22696464E-09
  -4.55000019       5.58930191E-09
  -4.50000000       4.13371737E-09
  -4.44999981       6.96905700E-10
  -4.40000010      -4.23278212E-09
  -4.34999990      -9.45906997E-09
  -4.30000019      -1.32614320E-08
  -4.25000000      -1.38335592E-08
  -4.19999981      -9.90124605E-09
  -4.15000010      -1.35223810E-09
  -4.09999990       1.03486881E-08
  -4.05000019       2.21796963E-08
  -4.00000000       3.01462713E-08
  -3.95000005       3.03919414E-08
  -3.90000010       2.05926511E-08
  -3.84999990       1.21591293E-09
  -3.79999995      -2.38473437E-08
  -3.75000000      -4.76836668E-08
  -3.70000005      -6.19357152E-08
  -3.65000010      -5.93175074E-08
  -3.59999990      -3.64219161E-08
  -3.54999995       4.10052081E-09
  -3.50000000       5.29267474E-08
  -3.45000005       9.56243440E-08
  -3.40000010       1.16382679E-07
  -3.34999990       1.03126865E-07
  -3.29999995       5.25485611E-08
  -3.25000000      -2.67295928E-08
  -3.20000005      -1.14392833E-07
  -3.15000010      -1.82763756E-07
  -3.09999990      -2.04626232E-07
  -3.04999995      -1.62593537E-07
  -3.00000000      -5.71156349E-08
  -2.95000005       8.99165897E-08
  -2.90000010       2.38110175E-07
  -2.84999990       3.38367443E-07
  -2.79999995       3.47563684E-07
  -2.75000000       2.44081349E-07
  -2.70000005       3.91311872E-08
  -2.65000010      -2.20707648E-07
  -2.59999990      -4.62156322E-07
  -2.54999995      -6.04209049E-07
  -2.50000000      -5.82924372E-07
  -2.45000005      -3.74888259E-07
  -2.40000010      -1.15064802E-08
  -2.34999990       4.21931361E-07
  -2.29999995       8.04426804E-07
  -2.25000000       1.01142882E-06
  -2.20000005       9.52776134E-07
  -2.15000010       6.05290154E-07
  -2.09999990       2.91313977E-08
  -2.04999995      -6.39222492E-07
  -2.00000000      -1.21808569E-06
  -1.95000005      -1.52909206E-06
  -1.89999998      -1.45037961E-06
  -1.85000002      -9.58890496E-07
  -1.79999995      -1.47958147E-07
  -1.75000000       7.87571082E-07
  -1.70000005       1.59746401E-06
  -1.64999998       2.04287062E-06
  -1.60000002       1.96610540E-06
  -1.54999995       1.34339723E-06
  -1.50000000       3.03821139E-07
  -1.45000005      -8.93994127E-07
  -1.39999998      -1.92435095E-06
  -1.35000002      -2.48166543E-06
  -1.29999995      -2.36962319E-06
  -1.25000000      -1.56710882E-06
  -1.20000005      -2.50110162E-07
  -1.14999998       1.24063524E-06
  -1.10000002       2.48214405E-06
  -1.04999995       3.08325366E-06
  -1.00000000       2.80096515E-06
 -0.949999988       1.62620006E-06
 -0.899999976      -1.88701762E-07
 -0.850000024      -2.17486877E-06
 -0.800000012      -3.75926061E-06
 -0.750000000      -4.41973589E-06
 -0.699999988      -3.84289115E-06
 -0.649999976      -2.03923355E-06
 -0.600000024       6.22725167E-07
 -0.550000012       3.48273466E-06
 -0.500000000       5.74745400E-06
 -0.449999988       6.70525560E-06
 -0.400000006       5.94008179E-06
 -0.349999994       3.48107824E-06
 -0.300000012      -1.62907824E-07
 -0.250000000      -4.10562461E-06
 -0.200000003      -7.30498050E-06
 -0.150000006      -8.84851397E-06
 -0.100000001      -8.22291076E-06
  -5.00000007E-02  -5.48576872E-06
   5.55111512E-16  -1.28120939E-06
   5.00000007E-02   3.31545584E-06
  0.100000001       7.08727248E-06
  0.150000006       9.01916246E-06
  0.200000003       8.59432839E-06
  0.250000000       5.95240726E-06
  0.300000012       1.85755039E-06
  0.349999994      -2.51817596E-06
  0.400000006      -5.93336517E-06
  0.449999988      -7.43657665E-06
  0.500000000      -6.63826222E-06
  0.550000012      -3.81475638E-06
  0.600000024       1.83180006E-07
  0.649999976       4.18402124E-06
  0.699999988       7.02981015E-06
  0.750000000       7.88953730E-06
  0.800000012       6.46356284E-06
  0.850000024       3.03180423E-06
  0.899999976      -1.64956668E-06
  0.949999988      -6.55400891E-06
   1.00000000      -1.06224998E-05
   1.04999995      -1.29687942E-05
   1.10000002      -1.30145563E-05
   1.14999998      -1.05508198E-05
   1.20000005      -5.74698379E-06
   1.25000000       8.66097537E-07
   1.29999995       8.42642476E-06
   1.35000002       1.57952763E-05
   1.39999998       2.16630669E-05
   1.45000005       2.47309381E-05
   1.50000000       2.39656001E-05
   1.54999995       1.88837894E-05
   1.60000002       9.78511889E-06
   1.64999998      -2.16032458E-06
   1.70000005      -1.50383512E-05
   1.75000000      -2.65391154E-05
   1.79999995      -3.44587424E-05
   1.85000002      -3.72209106E-05
   1.89999998      -3.42618623E-05
   1.95000005      -2.61546902E-05
   2.00000000      -1.44298410E-05
   2.04999995      -1.15067735E-06
   2.09999990       1.16131469E-05
   2.15000010       2.22400649E-05
   2.20000005       2.97995975E-05
   2.25000000       3.40342121E-05
   2.29999995       3.51372437E-05
   2.34999990       3.34629112E-05
   2.40000010       2.93196263E-05
   2.45000005       2.29412999E-05
   2.50000000       1.46276461E-05
   2.54999995       4.94236701E-06
   2.59999990      -5.19053992E-06
   2.65000010      -1.46166203E-05
   2.70000005      -2.23192365E-05
   2.75000000      -2.78970183E-05
   2.79999995      -3.19189821E-05
   2.84999990      -3.59235528E-05
   2.90000010      -4.19467979E-05
   2.95000005      -5.16720102E-05
   3.00000000      -6.55045296E-05
   3.04999995      -8.19914712E-05
   3.09999990      -9.79510514E-05
   3.15000010      -1.09439577E-04
   3.20000005      -1.13337330E-04
   3.25000000      -1.09010361E-04
   3.29999995      -9.93515278E-05
   3.34999990      -9.06211862E-05
   3.40000010      -9.08932125E-05
   3.45000005      -1.07451844E-04
   3.50000000      -1.43976344E-04
   3.54999995      -1.98583599E-04
   3.59999990      -2.63635302E-04
   3.65000010      -3.27663758E-04
   3.70000005      -3.78995959E-04
   3.75000000      -4.09938366E-04
   3.79999995      -4.20021272E-04
   3.84999990      -4.16976109E-04
   3.90000010      -4.14831738E-04
   3.95000005      -4.29545849E-04
   4.00000000      -4.73565771E-04
   4.05000019      -5.51254954E-04
   4.09999990      -6.56970951E-04
   4.15000010      -7.76731293E-04
   4.19999981      -8.93122575E-04
   4.25000000      -9.91852139E-04
   4.30000019      -1.06759940E-03
   4.34999990      -1.12691883E-03
   4.40000010      -1.18690473E-03
   4.44999981      -1.26984355E-03
   4.50000000      -1.39560271E-03
   4.55000019      -1.57445553E-03
   4.59999990      -1.80302898E-03
   4.65000010      -2.06502317E-03
   4.69999981      -2.33665598E-03
   4.75000000      -2.59502721E-03
   4.80000019      -2.82646599E-03
   4.84999990      -3.03185242E-03
   4.90000010      -3.22697009E-03
   4.94999981      -3.43774981E-03
   5.00000000      -3.69215966E-03
   5.05000019      -4.01170971E-03
   5.09999990      -4.40565916E-03
   5.15000010      -4.86992206E-03
   5.19999981      -5.39084291E-03
   5.25000000      -5.95214032E-03
   5.30000019      -6.54216995E-03
   5.34999990      -7.15864403E-03
   5.40000010      -7.80913979E-03
   5.44999981      -8.50753393E-03
   5.50000000      -9.26821679E-03
   5.55000019      -1.01008564E-02
   5.59999990      -1.10081006E-02
   5.65000010      -1.19872466E-02
   5.69999981      -1.30350012E-02
   5.75000000      -1.41529432E-02
   5.80000019      -1.53508801E-02
   5.84999990      -1.66461486E-02
   5.90000010      -1.80587918E-02
   5.94999981      -1.96045619E-02
   6.00000000      -2.12890692E-02
   6.05000019      -2.31062192E-02
   6.09999990      -2.50424780E-02
   6.15000010      -2.70860177E-02
   6.19999981      -2.92373262E-02
   6.25000000      -3.15167755E-02
   6.30000019      -3.39651965E-02
   6.34999990      -3.66361700E-02
   6.40000010      -3.95819098E-02
   6.44999981      -4.28377390E-02
   6.50000000      -4.64111976E-02
   6.55000019      -5.02806902E-02
   6.59999990      -5.44052795E-02
   6.65000010      -5.87427802E-02
   6.69999981      -6.32700920E-02
   6.75000000      -6.79980293E-02
   6.80000019      -7.29747936E-02
   6.84999990      -7.82761127E-02
   6.90000010      -8.39853659E-02
   6.94999981      -9.01708007E-02
   7.00000000      -9.68687385E-02
   7.05000019     -0.104079291    
   7.09999990     -0.111776702    
   7.15000010     -0.119930640    
   7.19999981     -0.128530070    
   7.25000000     -0.137600482    
   7.30000019     -0.147206903    
   7.34999990     -0.157441601    
   7.40000010     -0.168400303    
   7.44999981     -0.180156723    
   7.50000000     -0.192745268    
   7.55000019     -0.206159323    
   7.59999990     -0.220366374    
   7.65000010     -0.235334352    
   7.69999981     -0.251058996    
   7.75000000     -0.267581493    
   7.80000019     -0.284988970    
   7.84999990     -0.303397536    
   7.90000010     -0.322924495    
   7.94999981     -0.343660772    
   8.00000000     -0.365655184    
   8.05000019     -0.388916433    
   8.10000038     -0.413433135    
   8.14999962     -0.439203173    
   8.19999981     -0.466260433    
   8.25000000     -0.494687766    
   8.30000019     -0.524609804    
   8.35000038     -0.556168556    
   8.39999962     -0.589490831    
   8.44999981     -0.624661684    
   8.50000000     -0.661714077    
   8.55000019     -0.700641036    
   8.60000038     -0.741425037    
   8.64999962     -0.784073651    
   8.69999981     -0.828646481    
   8.75000000     -0.875262618    
   8.80000019     -0.924084067    
   8.85000038     -0.975281954    
   8.89999962      -1.02899873    
   8.94999981      -1.08532155    
   9.00000000      -1.14427817    
   9.05000019      -1.20585847    
   9.10000038      -1.27005243    
   9.14999962      -1.33688986    
   9.19999981      -1.40646601    
   9.25000000      -1.47894144    
   9.30000019      -1.55451703    
   9.35000038      -1.63339090    
   9.39999962      -1.71571863    
   9.44999981      -1.80158794    
   9.50000000      -1.89102185    
   9.55000019      -1.98400724    
   9.60000038      -2.08053732    
   9.64999962      -2.18065119    
   9.69999981      -2.28445244    
   9.75000000      -2.39210272    
   9.80000019      -2.50378823    
   9.85000038      -2.61967850    
   9.89999962      -2.73989224    
   9.94999981      -2.86448550    
   10.0000000      -2.99346805    
   10.0500002      -3.12684083    
   10.1000004      -3.26463747    
   10.1499996      -3.40695167    
   10.1999998      -3.55393791    
   10.2500000      -3.70578480    
   10.3000002      -3.86266780    
   10.3500004      -4.02470827    
   10.3999996      -4.19194984    
   10.4499998      -4.36436844    
   10.5000000      -4.54191494    
   10.5500002      -4.72456551    
   10.6000004      -4.91236877    
   10.6499996      -5.10546017    
   10.6999998      -5.30404043    
   10.7500000      -5.50832367    
   10.8000002      -5.71846867    
   10.8500004      -5.93453550    
   10.8999996      -6.15646982    
   10.9499998      -6.38413954    
   11.0000000      -6.61739826    
   11.0500002      -6.85616207    
   11.1000004      -7.10046196    
   11.1499996      -7.35045385    
   11.1999998      -7.60637617    
   11.2500000      -7.86847353    
   11.3000002      -8.13691425    
   11.3500004      -8.41172981    
   11.3999996      -8.69281101    
   11.4499998      -8.97994614    
   11.5000000      -9.27290726    
   11.5500002      -9.57153130    
   11.6000004      -9.87578487    
   11.6499996      -10.1857710    
   11.6999998      -10.5016718    
   11.7500000      -10.8236837    
   11.8000002      -11.1519184    
   11.8500004      -11.4863634    
   11.8999996      -11.8268700    
   11.9499998      -12.1732111    
   12.0000000      -12.5251551    
   12.0500002      -12.8825455    
   12.1000004      -13.2453375    
   12.1499996      -13.6135902    
   12.1999998      -13.9874125    
   12.2500000      -14.3668776    
   12.3000002      -14.7519741    
   12.3500004      -15.1425667    
   12.3999996      -15.5384340    
   12.4499998      -15.9393311    
   12.5000000      -16.3450661    
   12.5500002      -16.7555580    
   12.6000004      -17.1708317    
   12.6499996      -17.5909882    
   12.6999998      -18.0161133    
   12.7500000      -18.4461918    
   12.8000002      -18.8810825    
   12.8500004      -19.3205032    
   12.8999996      -19.7641144    
   12.9499998      -20.2115974    
   13.0000000      -20.6627483    
   13.0500002      -21.1175175    
   13.1000004      -21.5759869    
   13.1499996      -22.0382881    
   13.1999998      -22.5045052    
   13.2500000      -22.9745827    
   13.3000002      -23.4483013    
   13.3500004      -23.9253006    
   13.3999996      -24.4051800    
   13.4499998      -24.8876095    
   13.5000000      -25.3724060    
   13.5500002      -25.8595734    
   13.6000004      -26.3492546    
   13.6499996      -26.8416252    
   13.6999998      -27.3367901    
   13.7500000      -27.8346939    
   13.8000002      -28.3351021    
   13.8500004      -28.8376446    
   13.8999996      -29.3419285    
   13.9499998      -29.8476429    
   14.0000000      -30.3546410    
   14.0500002      -30.8629475    
   14.1000004      -31.3726997    
   14.1499996      -31.8840485    
   14.1999998      -32.3970451    
   14.2500000      -32.9115982    
   14.3000002      -33.4274406    
   14.3500004      -33.9442253    
   14.3999996      -34.4616280    
   14.4499998      -34.9794159    
   14.5000000      -35.4975395    
   14.5500002      -36.0160904    
   14.6000004      -36.5352402    
   14.6499996      -37.0551262    
   14.6999998      -37.5757866    
   14.7500000      -38.0970879    
   14.8000002      -38.6187744    
   14.8500004      -39.1405334    
   14.8999996      -39.6620979    
   14.9499998      -40.1833267    
   15.0000000      -40.7042160    
   15.0500002      -41.2248840    
   15.1000004      -41.7454834    
   15.1499996      -42.2660980    
   15.1999998      -42.7867165    
   15.2500000      -43.3071747    
   15.3000002      -43.8272400    
   15.3500004      -44.3466568    
   15.3999996      -44.8652306    
   15.4499998      -45.3828926    
   15.5000000      -45.8996658    
   15.5500002      -46.4156609    
   15.6000004      -46.9309731    
   15.6499996      -47.4456253    
   15.6999998      -47.9595604    
   15.7500000      -48.4726334    
   15.8000002      -48.9846611    
   15.8500004      -49.4954796    
   15.8999996      -50.0049858    
   15.9499998      -50.5131531    
   16.0000000      -51.0199966    
   16.0499992      -51.5255394    
   16.1000004      -52.0297508    
   16.1499996      -52.5325584    
   16.2000008      -53.0338097    
   16.2500000      -53.5333443    
   16.2999992      -54.0310287    
   16.3500004      -54.5267563    
   16.3999996      -55.0204697    
   16.4500008      -55.5121040    
   16.5000000      -56.0015602    
   16.5499992      -56.4886665    
   16.6000004      -56.9731979    
   16.6499996      -57.4548759    
   16.7000008      -57.9334488    
   16.7500000      -58.4087334    
   16.7999992      -58.8806114    
   16.8500004      -59.3490295    
   16.8999996      -59.8139229    
   16.9500008      -60.2751350    
   17.0000000      -60.7323914    
   17.0499992      -61.1852798    
   17.1000004      -61.6333160    
   17.1499996      -62.0760231    
   17.2000008      -62.5130196    
   17.2500000      -62.9440651    
   17.2999992      -63.3690453    
   17.3500004      -63.7878838    
   17.3999996      -64.2004089    
   17.4500008      -64.6062775    
   17.5000000      -65.0049133    
   17.5499992      -65.3955765    
   17.6000004      -65.7774277    
   17.6499996      -66.1497040    
   17.7000008      -66.5118408    
   17.7500000      -66.8635101    
   17.7999992      -67.2045212    
   17.8500004      -67.5346985    
   17.8999996      -67.8537216    
   17.9500008      -68.1609802    
   18.0000000      -68.4555664    
   18.0499992      -68.7363892    
   18.1000004      -69.0023041    
   18.1499996      -69.2523270    
   18.2000008      -69.4857712    
   18.2500000      -69.7021790    
   18.2999992      -69.9012604    
   18.3500004      -70.0826874    
   18.3999996      -70.2458801    
   18.4500008      -70.3898926    
   18.5000000      -70.5134354    
   18.5499992      -70.6149979    
   18.6000004      -70.6930923    
   18.6499996      -70.7464828    
   18.7000008      -70.7742691    
   18.7500000      -70.7758713    
   18.7999992      -70.7508698    
   18.8500004      -70.6987381    
   18.8999996      -70.6186676    
   18.9500008      -70.5094528    
   19.0000000      -70.3695221    
   19.0499992      -70.1971893    
   19.1000004      -69.9908142    
   19.1499996      -69.7491150    
   19.2000008      -69.4711685    
   19.2500000      -69.1563492    
   19.2999992      -68.8041458    
   19.3500004      -68.4138870    
   19.3999996      -67.9845581    
   19.4500008      -67.5147629    
   19.5000000      -67.0028076    
   19.5499992      -66.4469376    
   19.6000004      -65.8456268    
   19.6499996      -65.1977081    
   19.7000008      -64.5024414    
   19.7500000      -63.7593727    
   19.7999992      -62.9681053    
   19.8500004      -62.1280556    
   19.8999996      -61.2383118    
   19.9500008      -60.2976036    
   20.0000000      -59.3044968    
   20.0499992      -58.2575722    
   20.1000004      -57.1557198    
   20.1499996      -55.9982300    
   20.2000008      -54.7847939    
   20.2500000      -53.5153046    
   20.2999992      -52.1896744    
   20.3500004      -50.8076019    
   20.3999996      -49.3685188    
   20.4500008      -47.8716164    
   20.5000000      -46.3160782    
   20.5499992      -44.7012596    
   20.6000004      -43.0268936    
   20.6499996      -41.2931137    
   20.7000008      -39.5003700    
   20.7500000      -37.6492500    
   20.7999992      -35.7402573    
   20.8500004      -33.7737083    
   20.8999996      -31.7497215    
   20.9500008      -29.6683521    
   21.0000000      -27.5298023    
   21.0499992      -25.3345852    
   21.1000004      -23.0836201    
   21.1499996      -20.7781792    
   21.2000008      -18.4197369    
   21.2500000      -16.0097656    
   21.2999992      -13.5496025    
   21.3500004      -11.0404034    
   21.3999996      -8.48325539    
   21.4500008      -5.87935495    
   21.5000000      -3.23020077    
   21.5499992     -0.537695765    
   21.6000004       2.19587135    
   21.6499996       4.96798038    
   21.7000008       7.77608967    
   21.7500000       10.6178207    
   21.7999992       13.4910240    
   21.8500004       16.3937092    
   21.8999996       19.3238430    
   21.9500008       22.2791367    
   22.0000000       25.2568760    
   22.0499992       28.2538986    
   22.1000004       31.2667408    
   22.1499996       34.2918701    
   22.2000008       37.3259239    
   22.2500000       40.3658600    
   22.2999992       43.4089355    
   22.3500004       46.4525223    
   22.3999996       49.4938507    
   22.4500008       52.5297623    
   22.5000000       55.5566254    
   22.5499992       58.5704231    
   22.6000004       61.5669746    
   22.6499996       64.5422745    
   22.7000008       67.4927444    
   22.7500000       70.4152679    
   22.7999992       73.3071060    
   22.8500004       76.1655960    
   22.8999996       78.9878082    
   22.9500008       81.7703476    
   23.0000000       84.5093079    
   23.0499992       87.2004776    
   23.1000004       89.8396759    
   23.1499996       92.4231262    
   23.2000008       94.9476547    
   23.2500000       97.4107666    
   23.2999992       99.8103409    
   23.3500004       102.144341    
   23.3999996       104.410400    
   23.4500008       106.605614    
   23.5000000       108.726646    
   23.5499992       110.769920    
   23.6000004       112.732056    
   23.6499996       114.610268    
   23.7000008       116.402542    
   23.7500000       118.107559    
   23.7999992       119.724426    
   23.8500004       121.252304    
   23.8999996       122.689972    
   23.9500008       124.035736    
   24.0000000       125.287476    
   24.0499992       126.443001    
   24.1000004       127.500404    
   24.1499996       128.458481    
   24.2000008       129.316818    
   24.2500000       130.075684    
   24.2999992       130.735703    
   24.3500004       131.297470    
   24.3999996       131.761261    
   24.4500008       132.126801    
   24.5000000       132.393539    
   24.5499992       132.560989    
   24.6000004       132.628998    
   24.6499996       132.598145    
   24.7000008       132.469711    
   24.7500000       132.245590    
   24.7999992       131.927933    
   24.8500004       131.518692    
   24.8999996       131.019531    
   24.9500008       130.431656    
   25.0000000       129.756012    
   25.0499992       128.993637    
   25.1000004       128.145950    
   25.1499996       127.214989    
   25.2000008       126.203369    
   25.2500000       125.114159    
   25.2999992       123.950500    
   25.3500004       122.715363    
   25.3999996       121.411339    
   25.4500008       120.040657    
   25.5000000       118.605370    
   25.5499992       117.107597    
   25.6000004       115.549812    
   25.6499996       113.934929    
   25.7000008       112.266273    
   25.7500000       110.547379    
   25.7999992       108.781776    
   25.8500004       106.972801    
   25.8999996       105.123413    
   25.9500008       103.236328    
   26.0000000       101.314117    
   26.0499992       99.3593903    
   26.1000004       97.3749390    
   26.1499996       95.3637772    
   26.2000008       93.3291168    
   26.2500000       91.2742233    
   26.2999992       89.2022705    
   26.3500004       87.1162415    
   26.3999996       85.0189514    
   26.4500008       82.9130173    
   26.5000000       80.8009796    
   26.5499992       78.6853561    
   26.6000004       76.5686798    
   26.6499996       74.4534531    
   26.7000008       72.3421173    
   26.7500000       70.2370377    
   26.7999992       68.1404724    
   26.8500004       66.0545807    
   26.8999996       63.9815140    
   26.9500008       61.9234047    
   27.0000000       59.8823700    
   27.0499992       57.8604431    
   27.1000004       55.8594971    
   27.1499996       53.8811836    
   27.2000008       51.9268913    
   27.2500000       49.9978333    
   27.2999992       48.0951309    
   27.3500004       46.2199516    
   27.3999996       44.3735924    
   27.4500008       42.5574799    
   27.5000000       40.7730713    
   27.5499992       39.0217018    
   27.6000004       37.3044090    
   27.6499996       35.6218529    
   27.7000008       33.9743500    
   27.7500000       32.3619919    
   27.7999992       30.7848606    
   27.8500004       29.2432232    
   27.8999996       27.7376251    
   27.9500008       26.2688427    
   28.0000000       24.8377094    
   28.0499992       23.4448738    
   28.1000004       22.0905991    
   28.1499996       20.7746830    
   28.2000008       19.4965401    
   28.2500000       18.2554016    
   28.2999992       17.0506058    
   28.3500004       15.8817987    
   28.3999996       14.7490072    
   28.4500008       13.6525393    
   28.5000000       12.5927372    
   28.5499992       11.5697012    
   28.6000004       10.5830860    
   28.6499996       9.63205242    
   28.7000008       8.71541882    
   28.7500000       7.83193254    
   28.7999992       6.98055935    
   28.8500004       6.16068602    
   28.8999996       5.37213326    
   28.9500008       4.61498547    
   29.0000000       3.88929820    
   29.0499992       3.19480515    
   29.1000004       2.53074265    
   29.1499996       1.89587235    
   29.2000008       1.28868973    
   29.2500000      0.707742393    
   29.2999992      0.151925132    
   29.3500004     -0.379361987    
   29.3999996     -0.886261463    
   29.4500008      -1.36869085    
   29.5000000      -1.82666779    
   29.5499992      -2.26059723    
   29.6000004      -2.67140198    
   29.6499996      -3.06044698    
   29.7000008      -3.42928028    
   29.7500000      -3.77930498    
   29.7999992      -4.11150312    
   29.8500004      -4.42633057    
   29.8999996      -4.72381735    
   29.9500008      -5.00383759    
   30.0000000      -5.26643229    
   30.0499992      -5.51206303    
   30.1000004      -5.74168491    
   30.1499996      -5.95661736    
   30.2000008      -6.15826321    
   30.2500000      -6.34778929    
   30.2999992      -6.52589369    
   30.3500004      -6.69275570    
   30.3999996      -6.84818792    
   30.4500008      -6.99192190    
   30.5000000      -7.12392187    
   30.5499992      -7.24459791    
   30.6000004      -7.35483837    
   30.6499996      -7.45584726    
   30.7000008      -7.54886150    
   30.7500000      -7.63485098    
   30.7999992      -7.71432543    
   30.8500004      -7.78731203    
   30.8999996      -7.85351658    
   30.9500008      -7.91259336    
   31.0000000      -7.96442223    
   31.0499992      -8.00928020    
   31.1000004      -8.04785538    
   31.1499996      -8.08109570    
   31.2000008      -8.10995388    
   31.2500000      -8.13514805    
   31.2999992      -8.15699863    
   31.3500004      -8.17543697    
   31.3999996      -8.19013786    
   31.4500008      -8.20075321    
   31.5000000      -8.20713329    
   31.5499992      -8.20945644    
   31.6000004      -8.20824337    
   31.6499996      -8.20421982    
   31.7000008      -8.19812202    
   31.7500000      -8.19049740    
   31.7999992      -8.18158150    
   31.8500004      -8.17128372    
   31.8999996      -8.15929508    
   31.9500008      -8.14525604    
   32.0000000      -8.12893105    
   32.0499992      -8.11032391    
   32.0999985      -8.08970261    
   32.1500015      -8.06753445    
   32.2000008      -8.04435158    
   32.2500000      -8.02060223    
   32.2999992      -7.99653816    
   32.3499985      -7.97217798    
   32.4000015      -7.94733953    
   32.4500008      -7.92173624    
   32.5000000      -7.89510345    
   32.5499992      -7.86730623    
   32.5999985      -7.83840036    
   32.6500015      -7.80863428    
   32.7000008      -7.77838659    
   32.7500000      -7.74806070    
   32.7999992      -7.71797705    