  -10.0000000       0.00000000    
  -9.94999981       0.00000000    
  -9.89999962       0.00000000    
  -9.85000038       0.00000000    
  -9.80000019       0.00000000    
  -9.75000000       0.00000000    
  -9.69999981       0.00000000    
  -9.64999962       0.00000000    
  -9.60000038       0.00000000    
  -9.55000019      -6.22681512E-22
  -9.50000000      -6.69273247E-21
  -9.44999981      -2.77860631E-20
  -9.39999962      -4.33740313E-21
  -9.35000038       6.08116872E-19
  -9.30000019       4.13693083E-18
  -9.25000000       1.72378749E-17
  -9.19999981       5.32048096E-17
  -9.14999962       1.27827727E-16
  -9.10000038       2.36291170E-16
  -9.05000019       2.98326460E-16
  -9.00000000       7.95162238E-17
  -8.94999981      -8.47515544E-16
  -8.89999962      -2.95600438E-15
  -8.85000038      -6.23829940E-15
  -8.80000019      -9.21666037E-15
  -8.75000000      -7.81616085E-15
  -8.69999981       4.85849882E-15
  -8.64999962       3.60804018E-14
  -8.60000038       8.66577182E-14
  -8.55000019       1.39759637E-13
  -8.50000000       1.49721097E-13
  -8.44999981       4.10460477E-14
  -8.39999962      -2.67796093E-13
  -8.35000038      -8.03969901E-13
  -8.30000019      -1.44736014E-12
  -8.25000000      -1.84004960E-12
  -8.19999981      -1.37071582E-12
  -8.14999962       6.70658895E-13
  -8.10000038       4.69613671E-12
  -8.05000019       1.02084790E-11
  -8.00000000       1.51780689E-11
  -7.94999981       1.58138277E-11
  -7.90000010       7.25214853E-12
  -7.84999990      -1.44288990E-11
  -7.80000019      -4.89380723E-11
  -7.75000000      -8.81399051E-11
  -7.69999981      -1.13920824E-10
  -7.65000010      -1.00022074E-10
  -7.59999990      -1.99551625E-11
  -7.55000019       1.38709016E-10
  -7.50000000       3.56700336E-10
  -7.44999981       5.69078507E-10
  -7.40000010       6.64911626E-10
  -7.34999990       5.10246234E-10
  -7.30000019      -1.57845221E-12
  -7.25000000      -8.79430362E-10
  -7.19999981      -1.96541228E-09
  -7.15000010      -2.90170110E-09
  -7.09999990      -3.17070259E-09
  -7.05000019      -2.23307417E-09
  -7.00000000       2.43674053E-10
  -6.94999981       4.11900469E-09
  -6.90000010       8.57420623E-09
  -6.84999990       1.20911974E-08
  -6.80000019       1.27197772E-08
  -6.75000000       8.66413963E-09
  -6.69999981      -9.02839858E-10
  -6.65000010      -1.50287942E-08
  -6.59999990      -3.05105310E-08
  -6.55000019      -4.21080664E-08
  -6.50000000      -4.36603145E-08
  -6.44999981      -3.00463618E-08
  -6.40000010       4.24280500E-10
  -6.34999990       4.39457466E-08
  -6.30000019       9.03949839E-08
  -6.25000000       1.24546872E-07
  -6.19999981       1.29631786E-07
  -6.15000010       9.27690493E-08
  -6.09999990       1.09465503E-08
  -6.05000019      -1.04435635E-07
  -6.00000000      -2.26569725E-07
  -5.94999981      -3.17299452E-07
  -5.90000010      -3.36403104E-07
  -5.84999990      -2.54473747E-07
  -5.80000019      -6.60348576E-08
  -5.75000000       2.01506310E-07
  -5.69999981       4.87252407E-07
  -5.65000010       7.07033337E-07
  -5.59999990       7.73940712E-07
  -5.55000019       6.25129985E-07
  -5.50000000       2.47806526E-07
  -5.44999981      -3.04091742E-07
  -5.40000010      -9.09962580E-07
  -5.34999990      -1.40316092E-06
  -5.30000019      -1.61038167E-06
  -5.25000000      -1.40186341E-06
  -5.19999981      -7.39582276E-07
  -5.15000010       2.91301546E-07
  -5.09999990       1.48034985E-06
  -5.05000019       2.52549285E-06
  -5.00000000       3.09969073E-06
  -4.94999981       2.93803123E-06
  -4.90000010       1.92472680E-06
  -4.84999990       1.55880997E-07
  -4.80000019      -2.04374669E-06
  -4.75000000      -4.16319381E-06
  -4.69999981      -5.60672243E-06
  -4.65000010      -5.83830206E-06
  -4.59999990      -4.53890152E-06
  -4.55000019      -1.73720400E-06
  -4.50000000       2.12639839E-06
  -4.44999981       6.23322194E-06
  -4.40000010       9.52844493E-06
  -4.34999990       1.09567809E-05
  -4.30000019       9.74805516E-06
  -4.25000000       5.68584119E-06
  -4.19999981      -7.18038336E-07
  -4.15000010      -8.21190679E-06
  -4.09999990      -1.49943344E-05
  -4.05000019      -1.90967294E-05
  -4.00000000      -1.88922531E-05
  -3.95000005      -1.36138406E-05
  -3.90000010      -3.73562489E-06
  -3.84999990       8.91969194E-06
  -3.79999995       2.14338597E-05
  -3.75000000       3.04046898E-05
  -3.70000005       3.28082315E-05
  -3.65000010       2.69083266E-05
  -3.59999990       1.29580794E-05
  -3.54999995      -6.54685300E-06
  -3.50000000      -2.72117850E-05
  -3.45000005      -4.36794908E-05
  -3.40000010      -5.09788952E-05
  -3.34999990      -4.59551520E-05
  -3.29999995      -2.83784120E-05
  -3.25000000      -1.36852725E-06
  -3.20000005       2.90712651E-05
  -3.15000010       5.53807222E-05
  -3.09999990       7.03410624E-05
  -3.04999995       6.90595625E-05
  -3.00000000       5.04827840E-05
  -2.95000005       1.79702329E-05
  -2.90000010      -2.13016938E-05
  -2.84999990      -5.80116830E-05
  -2.79999995      -8.30300123E-05
  -2.75000000      -8.97962527E-05
  -2.70000005      -7.60791590E-05
  -2.65000010      -4.46188496E-05
  -2.59999990      -2.46368222E-06
  -2.54999995       4.08139749E-05
  -2.50000000       7.55206202E-05
  -2.45000005       9.41955950E-05
  -2.40000010       9.32860421E-05
  -2.34999990       7.37375958E-05
  -2.29999995       4.04297680E-05
  -2.25000000       7.18970455E-07
  -2.20000005      -3.74232113E-05
  -2.15000010      -6.71375456E-05
  -2.09999990      -8.38561027E-05
  -2.04999995      -8.57576160E-05
  -2.00000000      -7.35805443E-05
  -1.95000005      -5.00502792E-05
  -1.89999998      -1.92140233E-05
  -1.85000002       1.41212968E-05
  -1.79999995       4.48229221E-05
  -1.75000000       6.78622819E-05
  -1.70000005       7.89103506E-05
  -1.64999998       7.51742773E-05
  -1.60000002       5.63542017E-05
  -1.54999995       2.53910894E-05
  -1.50000000      -1.14271470E-05
  -1.45000005      -4.53489774E-05
  -1.39999998      -6.70924492E-05
  -1.35000002      -6.94783812E-05
  -1.29999995      -5.00300594E-05
  -1.25000000      -1.26179621E-05
  -1.20000005       3.26438130E-05
  -1.14999998       7.15834540E-05
  -1.10000002       8.98975268E-05
  -1.04999995       7.77984678E-05
  -1.00000000       3.39374928E-05
 -0.949999988      -3.28260976E-05
 -0.899999976      -1.04720551E-04
 -0.850000024      -1.59430434E-04
 -0.800000012      -1.76525267E-04
 -0.750000000      -1.44133039E-04
 -0.699999988      -6.37567646E-05
 -0.649999976       4.84924713E-05
 -0.600000024       1.65001577E-04
 -0.550000012       2.53558828E-04
 -0.500000000       2.86287395E-04
 -0.449999988       2.48085591E-04
 -0.400000006       1.42030651E-04
 -0.349999994      -1.00380676E-05
 -0.300000012      -1.72206361E-04
 -0.250000000      -3.03372217E-04
 -0.200000003      -3.68010951E-04
 -0.150000006      -3.45893088E-04
 -0.100000001      -2.38056979E-04
  -5.00000007E-02  -6.73315226E-05
   5.55111512E-16   1.26828338E-04
   5.00000007E-02   2.97905150E-04
  0.100000001       4.03837737E-04
  0.150000006       4.17562231E-04
  0.200000003       3.33926466E-04
  0.250000000       1.71274514E-04
  0.300000012      -3.26662157E-05
  0.349999994      -2.29588026E-04
  0.400000006      -3.72003560E-04
  0.449999988      -4.24585509E-04
  0.500000000      -3.72834533E-04
  0.550000012      -2.27082681E-04
  0.600000024      -2.08703896E-05
  0.649999976       1.96035326E-04
  0.699999988       3.68536421E-04
  0.750000000       4.48671432E-04
  0.800000012       4.06885345E-04
  0.850000024       2.39487606E-04
  0.899999976      -2.95711634E-05
  0.949999988      -3.53252544E-04
   1.00000000      -6.71505462E-04
   1.04999995      -9.24692315E-04
   1.10000002      -1.06727285E-03
   1.14999998      -1.07845699E-03
   1.20000005      -9.67170286E-04
   1.25000000      -7.70035491E-04
   1.29999995      -5.42827707E-04
   1.35000002      -3.47539084E-04
   1.39999998      -2.38313238E-04
   1.45000005      -2.49747274E-04
   1.50000000      -3.90330038E-04
   1.54999995      -6.42313855E-04
   1.60000002      -9.67550674E-04
   1.64999998      -1.31730782E-03
   1.70000005      -1.64325873E-03
   1.75000000      -1.90691976E-03
   1.79999995      -2.08567781E-03
   1.85000002      -2.17483146E-03
   1.89999998      -2.18628813E-03
   1.95000005      -2.14525848E-03
   2.00000000      -2.08631810E-03
   2.04999995      -2.04963866E-03
   2.09999990      -2.07738648E-03
   2.15000010      -2.20971555E-03
   2.20000005      -2.47974461E-03
   2.25000000      -2.90752226E-03
   2.29999995      -3.49397142E-03
   2.34999990      -4.21674084E-03
   2.40000010      -5.03019569E-03
   2.45000005      -5.87119022E-03
   2.50000000      -6.67075068E-03
   2.54999995      -7.36978836E-03
   2.59999990      -7.93517008E-03
   2.65000010      -8.37156828E-03
   2.70000005      -8.72507133E-03
   2.75000000      -9.07641090E-03
   2.79999995      -9.52462852E-03
   2.84999990      -1.01648597E-02
   2.90000010      -1.10660428E-02
   2.95000005      -1.22547159E-02
   3.00000000      -1.37096541E-02
   3.04999995      -1.53691331E-02
   3.09999990      -1.71490014E-02
   3.15000010      -1.89666953E-02
   3.20000005      -2.07645688E-02
   3.25000000      -2.25261934E-02
   3.29999995      -2.42813881E-02
   3.34999990      -2.60989852E-02
   3.40000010      -2.80697756E-02
   3.45000005      -3.02846953E-02
   3.50000000      -3.28143500E-02
   3.54999995      -3.56952175E-02
   3.59999990      -3.89258303E-02
   3.65000010      -4.24732044E-02
   3.70000005      -4.62872386E-02
   3.75000000      -5.03187701E-02
   3.79999995      -5.45365773E-02
   3.84999990      -5.89390658E-02
   3.90000010      -6.35582283E-02
   3.95000005      -6.84554726E-02
   4.00000000      -7.37107545E-02
   4.05000019      -7.94081837E-02
   4.09999990      -8.56214985E-02
   4.15000010      -9.24029052E-02
   4.19999981      -9.97777656E-02
   4.25000000     -0.107746139    
   4.30000019     -0.116290651    
   4.34999990     -0.125388578    
   4.40000010     -0.135025278    
   4.44999981     -0.145205468    
   4.50000000     -0.155959740    
   4.55000019     -0.167344868    
   4.59999990     -0.179437876    
   4.65000010     -0.192326069    
   4.69999981     -0.206096113    
   4.75000000     -0.220825002    
   4.80000019     -0.236576006    
   4.84999990     -0.253399521    
   4.90000010     -0.271338403    
   4.94999981     -0.290434688    
   5.00000000     -0.310734600    
   5.05000019     -0.332289785    
   5.09999990     -0.355154306    
   5.15000010     -0.379378617    
   5.19999981     -0.405004144    
   5.25000000     -0.432062447    
   5.30000019     -0.460580260    
   5.34999990     -0.490591347    
   5.40000010     -0.522151470    
   5.44999981     -0.555351973    
   5.50000000     -0.590325296    
   5.55000019     -0.627240062    
   5.59999990     -0.666283667    
   5.65000010     -0.707636714    
   5.69999981     -0.751446187    
   5.75000000     -0.797805250    
   5.80000019     -0.846747398    
   5.84999990     -0.898256719    
   5.90000010     -0.952293992    
   5.94999981      -1.00883043    
   6.00000000      -1.06788039    
   6.05000019      -1.12952304    
   6.09999990      -1.19390643    
   6.15000010      -1.26123452    
   6.19999981      -1.33173931    
   6.25000000      -1.40564644    
   6.30000019      -1.48314738    
   6.34999990      -1.56438100    
   6.40000010      -1.64943302    
   6.44999981      -1.73834896    
   6.50000000      -1.83115733    
   6.55000019      -1.92789459    
   6.59999990      -2.02862310    
   6.65000010      -2.13343954    
   6.69999981      -2.24247122    
   6.75000000      -2.35586452    
   6.80000019      -2.47376728    
   6.84999990      -2.59631658    
   6.90000010      -2.72362900    
   6.94999981      -2.85580063    
   7.00000000      -2.99291301    
   7.05000019      -3.13504386    
   7.09999990      -3.28227639    
   7.15000010      -3.43470621    
   7.19999981      -3.59244537    
   7.25000000      -3.75561666    
   7.30000019      -3.92434931    
   7.34999990      -4.09876871    
   7.40000010      -4.27898693    
   7.44999981      -4.46509552    
   7.50000000      -4.65716028    
   7.55000019      -4.85521984    
   7.59999990      -5.05929089    
   7.65000010      -5.26937580    
   7.69999981      -5.48547077    
   7.75000000      -5.70758057    
   7.80000019      -5.93572760    
   7.84999990      -6.16995621    
   7.90000010      -6.41033125    
   7.94999981      -6.65693283    
   8.00000000      -6.90984106    
   8.05000019      -7.16912222    
   8.10000038      -7.43481588    
   8.14999962      -7.70692873    
   8.19999981      -7.98543072    
   8.25000000      -8.27026367    
   8.30000019      -8.56135082    
   8.35000038      -8.85861206    
   8.39999962      -9.16197014    
   8.44999981      -9.47135639    
   8.50000000      -9.78670502    
   8.55000019      -10.1079550    
   8.60000038      -10.4350367    
   8.64999962      -10.7678728    
   8.69999981      -11.1063757    
   8.75000000      -11.4504499    
   8.80000019      -11.7999926    
   8.85000038      -12.1548986    
   8.89999962      -12.5150576    
   8.94999981      -12.8803482    
   9.00000000      -13.2506332    
   9.05000019      -13.6257563    
   9.10000038      -14.0055389    
   9.14999962      -14.3897839    
   9.19999981      -14.7782860    
   9.25000000      -15.1708422    
   9.30000019      -15.5672617    
   9.35000038      -15.9673653    
   9.39999962      -16.3709888    
   9.44999981      -16.7779636    
   9.50000000      -17.1881142    
   9.55000019      -17.6012497    
   9.60000038      -18.0171452    
   9.64999962      -18.4355621    
   9.69999981      -18.8562489    
   9.75000000      -19.2789440    
   9.80000019      -19.7034016    
   9.85000038      -20.1293697    
   9.89999962      -20.5566177    
   9.94999981      -20.9849110    
   10.0000000      -21.4140205    
   10.0500002      -21.8437157    
   10.1000004      -22.2737656    
   10.1499996      -22.7039471    
   10.1999998      -23.1340637    
   10.2500000      -23.5639248    
   10.3000002      -23.9933605    
   10.3500004      -24.4222050    
   10.3999996      -24.8502712    
   10.4499998      -25.2773533    
   10.5000000      -25.7031956    
   10.5500002      -26.1275177    
   10.6000004      -26.5500164    
   10.6499996      -26.9703999    
   10.6999998      -27.3884163    
   10.7500000      -27.8038616    
   10.8000002      -28.2165909    
   10.8500004      -28.6265125    
   10.8999996      -29.0335636    
   10.9499998      -29.4376812    
   11.0000000      -29.8387871    
   11.0500002      -30.2367744    
   11.1000004      -30.6315193    
   11.1499996      -31.0228882    
   11.1999998      -31.4107475    
   11.2500000      -31.7949982    
   11.3000002      -32.1755524    
   11.3500004      -32.5523529    
   11.3999996      -32.9253426    
   11.4499998      -33.2944412    
   11.5000000      -33.6595688    
   11.5500002      -34.0206108    
   11.6000004      -34.3774567    
   11.6499996      -34.7300339    
   11.6999998      -35.0783043    
   11.7500000      -35.4222946    
   11.8000002      -35.7620926    
   11.8500004      -36.0978432    
   11.8999996      -36.4297028    
   11.9499998      -36.7578163    
   12.0000000      -37.0823097    
   12.0500002      -37.4032364    
   12.1000004      -37.7206306    
   12.1499996      -38.0344925    
   12.1999998      -38.3448143    
   12.2500000      -38.6516190    
   12.3000002      -38.9549561    
   12.3500004      -39.2549286    
   12.3999996      -39.5516586    
   12.4499998      -39.8453178    
   12.5000000      -40.1360741    
   12.5500002      -40.4240990    
   12.6000004      -40.7095451    
   12.6499996      -40.9925537    
   12.6999998      -41.2732658    
   12.7500000      -41.5518074    
   12.8000002      -41.8283119    
   12.8500004      -42.1029243    
   12.8999996      -42.3757896    
   12.9499998      -42.6470795    
   13.0000000      -42.9169807    
   13.0500002      -43.1856880    
   13.1000004      -43.4534073    
   13.1499996      -43.7203445    
   13.1999998      -43.9866982    
   13.2500000      -44.2526512    
   13.3000002      -44.5183601    
   13.3500004      -44.7839775    
   13.3999996      -45.0496330    
   13.4499998      -45.3154526    
   13.5000000      -45.5815735    
   13.5500002      -45.8481331    
   13.6000004      -46.1152687    
   13.6499996      -46.3831100    
   13.6999998      -46.6517906    
   13.7500000      -46.9214287    
   13.8000002      -47.1921082    
   13.8500004      -47.4639511    
   13.8999996      -47.7370644    
   13.9499998      -48.0116043    
   14.0000000      -48.2877274    
   14.0500002      -48.5656357    
   14.1000004      -48.8455238    
   14.1499996      -49.1275749    
   14.1999998      -49.4119377    
   14.2500000      -49.6987152    
   14.3000002      -49.9879417    
   14.3500004      -50.2796211    
   14.3999996      -50.5737381    
   14.4499998      -50.8702621    
   14.5000000      -51.1692047    
   14.5500002      -51.4706039    
   14.6000004      -51.7745132    
   14.6499996      -52.0810051    
   14.6999998      -52.3901329    
   14.7500000      -52.7019234    
   14.8000002      -53.0163803    
   14.8500004      -53.3334885    
   14.8999996      -53.6532326    
   14.9499998      -53.9756355    
   15.0000000      -54.3007278    
   15.0500002      -54.6285820    
   15.1000004      -54.9592590    
   15.1499996      -55.2928047    
   15.1999998      -55.6292191    
   15.2500000      -55.9684334    
   15.3000002      -56.3103180    
   15.3500004      -56.6547165    
   15.3999996      -57.0014572    
   15.4499998      -57.3504028    
   15.5000000      -57.7014580    
   15.5500002      -58.0545769    
   15.6000004      -58.4097328    
   15.6499996      -58.7669182    
   15.6999998      -59.1260796    
   15.7500000      -59.4871216    
   15.8000002      -59.8499146    
   15.8500004      -60.2142868    
   15.8999996      -60.5800743    
   15.9499998      -60.9471321    
   16.0000000      -61.3153419    
   16.0499992      -61.6846275    
   16.1000004      -62.0549088    
   16.1499996      -62.4260941    
   16.2000008      -62.7980499    
   16.2500000      -63.1706047    
   16.2999992      -63.5435333    
   16.3500004      -63.9166031    
   16.3999996      -64.2895813    
   16.4500008      -64.6622543    
   16.5000000      -65.0344543    
   16.5499992      -65.4060211    
   16.6000004      -65.7768402    
   16.6499996      -66.1467667    
   16.7000008      -66.5156250    
   16.7500000      -66.8832092    
   16.7999992      -67.2492828    
   16.8500004      -67.6135712    
   16.8999996      -67.9757996    
   16.9500008      -68.3357086    
   17.0000000      -68.6930847    
   17.0499992      -69.0477142    
   17.1000004      -69.3993835    
   17.1499996      -69.7478943    
   17.2000008      -70.0930405    
   17.2500000      -70.4345856    
   17.2999992      -70.7722931    
   17.3500004      -71.1059341    
   17.3999996      -71.4352341    
   17.4500008      -71.7599716    
   17.5000000      -72.0798874    
   17.5499992      -72.3947525    
   17.6000004      -72.7042999    
   17.6499996      -73.0082703    
   17.7000008      -73.3063812    
   17.7500000      -73.5983429    
   17.7999992      -73.8838806    
   17.8500004      -74.1627121    
   17.8999996      -74.4346161    
   17.9500008      -74.6993332    
   18.0000000      -74.9566574    
   18.0499992      -75.2063599    
   18.1000004      -75.4481964    
   18.1499996      -75.6819458    
   18.2000008      -75.9073410    
   18.2500000      -76.1241531    
   18.2999992      -76.3321228    
   18.3500004      -76.5310516    
   18.3999996      -76.7207108    
   18.4500008      -76.9008942    
   18.5000000      -77.0714264    
   18.5499992      -77.2320862    
   18.6000004      -77.3826599    
   18.6499996      -77.5229645    
   18.7000008      -77.6527863    
   18.7500000      -77.7719269    
   18.7999992      -77.8802032    
   18.8500004      -77.9774475    
   18.8999996      -78.0634995    
   18.9500008      -78.1382217    
   19.0000000      -78.2014694    
   19.0499992      -78.2531128    
   19.1000004      -78.2930298    
   19.1499996      -78.3211517    
   19.2000008      -78.3373947    
   19.2500000      -78.3417358    
   19.2999992      -78.3341141    
   19.3500004      -78.3144913    
   19.3999996      -78.2827988    
   19.4500008      -78.2389374    
   19.5000000      -78.1828232    
   19.5499992      -78.1143646    
   19.6000004      -78.0335541    
   19.6499996      -77.9404144    
   19.7000008      -77.8350449    
   19.7500000      -77.7175980    
   19.7999992      -77.5882721    
   19.8500004      -77.4471817    
   19.8999996      -77.2944336    
   19.9500008      -77.1300354    
   20.0000000      -76.9539490    
   20.0499992      -76.7661209    
   20.1000004      -76.5665359    
   20.1499996      -76.3552780    
   20.2000008      -76.1325302    
   20.2500000      -75.8985901    
   20.2999992      -75.6538467    
   20.3500004      -75.3986435    
   20.3999996      -75.1333160    
   20.4500008      -74.8581009    
   20.5000000      -74.5731583    
   20.5499992      -74.2785873    
   20.6000004      -73.9745102    
   20.6499996      -73.6610718    
   20.7000008      -73.3385239    
   20.7500000      -73.0072021    
   20.7999992      -72.6675110    
   20.8500004      -72.3198547    
   20.8999996      -71.9646225    
   20.9500008      -71.6021042    
   21.0000000      -71.2325211    
   21.0499992      -70.8560486    
   21.1000004      -70.4728851    
   21.1499996      -70.0832901    
   21.2000008      -69.6876068    
   21.2500000      -69.2862930    
   21.2999992      -68.8798752    
   21.3500004      -68.4688721    
   21.3999996      -68.0537338    
   21.4500008      -67.6348724    
   21.5000000      -67.2125626    
   21.5499992      -66.7870026    
   21.6000004      -66.3583755    
   21.6499996      -65.9269028    
   21.7000008      -65.4928513    
   21.7500000      -65.0566254    
   21.7999992      -64.6186523    
   21.8500004      -64.1794434    
   21.8999996      -63.7394409    
   21.9500008      -63.2990608    
   22.0000000      -62.8586311    
   22.0499992      -62.4184151    
   22.1000004      -61.9786415    
   22.1499996      -61.5395355    
   22.2000008      -61.1013641    
   22.2500000      -60.6644173    
   22.2999992      -60.2290382    
   22.3500004      -59.7956009    
   22.3999996      -59.3644333    
   22.4500008      -58.9358521    
   22.5000000      -58.5101013    
   22.5499992      -58.0873947    
   22.6000004      -57.6678886    
   22.6499996      -57.2517548    
   22.7000008      -56.8391800    
   22.7500000      -56.4303780    
   22.7999992      -56.0256081    
   22.8500004      -55.6251526    
   22.8999996      -55.2292976    
   22.9500008      -54.8383141    
   23.0000000      -54.4524155    
   23.0499992      -54.0717659    
   23.1000004      -53.6964607    
   23.1499996      -53.3265457    
   23.2000008      -52.9620209    
   23.2500000      -52.6028786    
   23.2999992      -52.2491112    
   23.3500004      -51.9007721    
   23.3999996      -51.5579529    
   23.4500008      -51.2208061    
   23.5000000      -50.8895302    
   23.5499992      -50.5643234    
   23.6000004      -50.2453842    
   23.6499996      -49.9328346    
   23.7000008      -49.6267242    
   23.7500000      -49.3270187    
   23.7999992      -49.0336151    
   23.8500004      -48.7463837    
   23.8999996      -48.4652061    
   23.9500008      -48.1900177    
   24.0000000      -47.9207993    
   24.0499992      -47.6575775    
   24.1000004      -47.4004097    
   24.1499996      -47.1493073    
   24.2000008      -46.9042549    
   24.2500000      -46.6651611    
   24.2999992      -46.4319000    
   24.3500004      -46.2043533    
   24.3999996      -45.9824257    
   24.4500008      -45.7660904    
   24.5000000      -45.5553780    
   24.5499992      -45.3503532    
   24.6000004      -45.1510582    
   24.6499996      -44.9574814    
   24.7000008      -44.7694817    
   24.7500000      -44.5868416    
   24.7999992      -44.4092522    
   24.8500004      -44.2364273    
   24.8999996      -44.0681152    
   24.9500008      -43.9041977    
   25.0000000      -43.7446861    
   25.0499992      -43.5896797    
   25.1000004      -43.4393120    
   25.1499996      -43.2936707    
   25.2000008      -43.1527176    
   25.2500000      -43.0162964    
   25.2999992      -42.8841209    
   25.3500004      -42.7558556    
   25.3999996      -42.6312218    
   25.4500008      -42.5100098    
   25.5000000      -42.3921432    
   25.5499992      -42.2776604    
   25.6000004      -42.1666565    
   25.6499996      -42.0592079    
   25.7000008      -41.9552994    
   25.7500000      -41.8548012    
   25.7999992      -41.7574844    
   25.8500004      -41.6630630    
   25.8999996      -41.5712624    
   25.9500008      -41.4819069    
   26.0000000      -41.3949432    
   26.0499992      -41.3104172    
   26.1000004      -41.2284470    
   26.1499996      -41.1491432    
   26.2000008      -41.0725365    
   26.2500000      -40.9985275    
   26.2999992      -40.9269218    
   26.3500004      -40.8574333    
   26.3999996      -40.7897797    
   26.4500008      -40.7237358    
   26.5000000      -40.6591759    
   26.5499992      -40.5961075    
   26.6000004      -40.5346069    
   26.6499996      -40.4747925    
   26.7000008      -40.4167404    
   26.7500000      -40.3604546    
   26.7999992      -40.3058395    
   26.8500004      -40.2527351    
   26.8999996      -40.2009506    
   26.9500008      -40.1503105    
   27.0000000      -40.1007195    
   27.0499992      -40.0521469    
   27.1000004      -40.0046463    
   27.1499996      -39.9583092    
   27.2000008      -39.9132233    
   27.2500000      -39.8694077    
   27.2999992      -39.8268127    
   27.3500004      -39.7853127    
   27.3999996      -39.7447205    
   27.4500008      -39.7048416    
   27.5000000      -39.6655159    
   27.5499992      -39.6266632    
   27.6000004      -39.5882759    
   27.6499996      -39.5504227    
   27.7000008      -39.5132332    
   27.7500000      -39.4768295    
   27.7999992      -39.4412842    
   27.8500004      -39.4066124    
   27.8999996      -39.3727417    
   27.9500008      -39.3395271    
   28.0000000      -39.3067970    
   28.0499992      -39.2743950    
   28.1000004      -39.2422295    
   28.1499996      -39.2102814    
   28.2000008      -39.1786461    
   28.2500000      -39.1474571    
   28.2999992      -39.1168671    
   28.3500004      -39.0869980    
   28.3999996      -39.0578690    
   28.4500008      -39.0293961    
   28.5000000      -39.0014114    
   28.5499992      -38.9736824    
   28.6000004      -38.9459991    
   28.6499996      -38.9182320    
   28.7000008      -38.8903618    
   28.7500000      -38.8624992    
   28.7999992      -38.8348198    
   28.8500004      -38.8075447    
   28.8999996      -38.7808418    
   28.9500008      -38.7547798    
   29.0000000      -38.7292862    
   29.0499992      -38.7041931    
   29.1000004      -38.6792641    
   29.1499996      -38.6542892    
   29.2000008      -38.6291466    
   29.2500000      -38.6038513    
   29.2999992      -38.5785294    
   29.3500004      -38.5534210    
   29.3999996      -38.5287476    
   29.4500008      -38.5046806    
   29.5000000      -38.4812546    
   29.5499992      -38.4583664    
   29.6000004      -38.4358063    
   29.6499996      -38.4133148    
   29.7000008      -38.3906593    
   29.7500000      -38.3677177    
   29.7999992      -38.3444977    
   29.8500004      -38.3211250    
   29.8999996      -38.2978172    
   29.9500008      -38.2747879    
   30.0000000      -38.2521935    
   30.0499992      -38.2300949    
   30.1000004      -38.2084122    
   30.1499996      -38.1869926    
   30.2000008      -38.1656494    
   30.2500000      -38.1442223    
   30.2999992      -38.1226273    
   30.3500004      -38.1008835    
   30.3999996      -38.0790977    
   30.4500008      -38.0574341    
   30.5000000      -38.0360222    
   30.5499992      -38.0149574    
   30.6000004      -37.9942284    
   30.6499996      -37.9737473    
   30.7000008      -37.9533958    
   30.7500000      -37.9330482    
   30.7999992      -37.9126358    
   30.8500004      -37.8921700    
   30.8999996      -37.8717194    
   30.9500008      -37.8514099    
   31.0000000      -37.8313332    
   31.0499992      -37.8115311    
   31.1000004      -37.7919579    
   31.1499996      -37.7724915    
   31.2000008      -37.7529526    
   31.2500000      -37.7331924    
   31.2999992      -37.7131424    
   31.3500004      -37.6928215    
   31.3999996      -37.6723824    
   31.4500008      -37.6520348    
   31.5000000      -37.6320152    
   31.5499992      -37.6124954    
   31.6000004      -37.5935249    
   31.6499996      -37.5750237    
   31.7000008      -37.5568008    
   31.7500000      -37.5386276    
   31.7999992      -37.5202980    
   31.8500004      -37.5016975    
   31.8999996      -37.4828339    
   31.9500008      -37.4638290    
   32.0000000      -37.4448662    
   32.0499992      -37.4261017    
   32.0999985      -37.4076309    
   32.1500015      -37.3894119    
   32.2000008      -37.3713150    
   32.2500000      -37.3531418    
   32.2999992      -37.3347168    
   32.3499985      -37.3159523    
   32.4000015      -37.2968941    
   32.4500008      -37.2777061    
   32.5000000      -37.2586288    
   32.5499992      -37.2399139    
   32.5999985      -37.2217255    
   32.6500015      -37.2040939    
   32.7000008      -37.1869087    
   32.7500000      -37.1699409    
   32.7999992      -37.1529198    