  -10.0000000       0.00000000    
  -9.94999981       0.00000000    
  -9.89999962       0.00000000    
  -9.85000038       0.00000000    
  -9.80000019       0.00000000    
  -9.75000000       0.00000000    
  -9.69999981       0.00000000    
  -9.64999962       0.00000000    
  -9.60000038       0.00000000    
  -9.55000019       0.00000000    
  -9.50000000       0.00000000    
  -9.44999981       2.27323836E-38
  -9.39999962       1.18315203E-36
  -9.35000038       1.39079277E-35
  -9.30000019       9.88655493E-35
  -9.25000000       6.34383766E-34
  -9.19999981       4.30084253E-33
  -9.14999962       2.75136913E-32
  -9.10000038       1.48271180E-31
  -9.05000019       6.52502620E-31
  -9.00000000       2.35298949E-30
  -8.94999981       7.00878708E-30
  -8.89999962       1.72772602E-29
  -8.85000038       3.49024397E-29
  -8.80000019       5.60831582E-29
  -8.75000000       6.68315746E-29
  -8.69999981       5.03115374E-29
  -8.64999962       2.52567446E-29
  -8.60000038       1.11667404E-28
  -8.55000019       5.20214141E-28
  -8.50000000       1.16828470E-27
  -8.44999981       4.76046453E-28
  -8.39999962      -6.76267189E-27
  -8.35000038      -3.09743923E-26
  -8.30000019      -8.41784782E-26
  -8.25000000      -1.62868420E-25
  -8.19999981      -2.10137088E-25
  -8.14999962      -6.44155589E-26
  -8.10000038       5.60908848E-25
  -8.05000019       1.96814603E-24
  -8.00000000       4.10228063E-24
  -7.94999981       5.84763065E-24
  -7.90000010       4.20591013E-24
  -7.84999990      -5.89305720E-24
  -7.80000019      -2.97598818E-23
  -7.75000000      -6.75130134E-23
  -7.69999981      -1.04647328E-22
  -7.65000010      -1.01703236E-22
  -7.59999990       8.04090733E-24
  -7.55000019       2.98035840E-22
  -7.50000000       7.89819504E-22
  -7.44999981       1.35403388E-21
  -7.40000010       1.60198056E-21
  -7.34999990       8.49213485E-22
  -7.30000019      -1.72015258E-21
  -7.25000000      -6.55996877E-21
  -7.19999981      -1.29165860E-20
  -7.15000010      -1.78608198E-20
  -7.09999990      -1.57986683E-20
  -7.05000019       5.96551763E-22
  -7.00000000       3.70684222E-20
  -6.94999981       9.17835860E-20
  -6.90000010       1.47967192E-19
  -6.84999990       1.68842892E-19
  -6.80000019       1.00809619E-19
  -6.75000000      -1.08727903E-19
  -6.69999981      -4.75807006E-19
  -6.65000010      -9.32192018E-19
  -6.59999990      -1.28426852E-18
  -6.55000019      -1.21084156E-18
  -6.50000000      -3.37659676E-19
  -6.44999981       1.58648268E-18
  -6.40000010       4.42677823E-18
  -6.34999990       7.39210533E-18
  -6.30000019       8.90939115E-18
  -6.25000000       6.83832487E-18
  -6.19999981      -8.11590326E-19
  -6.15000010      -1.46526856E-17
  -6.09999990      -3.24490944E-17
  -6.05000019      -4.80189926E-17
  -6.00000000      -5.13924998E-17
  -5.94999981      -3.11006973E-17
  -5.90000010       2.10114662E-17
  -5.84999990       1.03095067E-16
  -5.80000019       1.96817171E-16
  -5.75000000       2.64546442E-16
  -5.69999981       2.54201840E-16
  -5.65000010       1.14645962E-16
  -5.59999990      -1.78799536E-16
  -5.55000019      -5.94405053E-16
  -5.50000000      -1.02121871E-15
  -5.44999981      -1.26895499E-15
  -5.40000010      -1.10516687E-15
  -5.34999990      -3.35725664E-16
  -5.30000019       1.08198729E-15
  -5.25000000       2.92541442E-15
  -5.19999981       4.64440193E-15
  -5.15000010       5.40879114E-15
  -5.09999990       4.30904507E-15
  -5.05000019       7.08790500E-16
  -5.00000000      -5.32021987E-15
  -4.94999981      -1.26253776E-14
  -4.90000010      -1.88595037E-14
  -4.84999990      -2.08167173E-14
  -4.80000019      -1.53159854E-14
  -4.75000000      -5.47006678E-16
  -4.69999981       2.24482078E-14
  -4.65000010       4.87099917E-14
  -4.59999990       6.93685628E-14
  -4.55000019       7.32617092E-14
  -4.50000000       5.02972907E-14
  -4.44999981      -3.95794652E-15
  -4.40000010      -8.37333471E-14
  -4.34999990      -1.70408663E-13
  -4.30000019      -2.33724959E-13
  -4.25000000      -2.38165282E-13
  -4.19999981      -1.54352307E-13
  -4.15000010       2.67518348E-14
  -4.09999990       2.81151621E-13
  -4.05000019       5.46241546E-13
  -4.00000000       7.27613716E-13
  -3.95000005       7.20963220E-13
  -3.90000010       4.47119392E-13
  -3.84999990      -1.07638555E-13
  -3.79999995      -8.59074856E-13
  -3.75000000      -1.61575224E-12
  -3.70000005      -2.10590594E-12
  -3.65000010      -2.04479229E-12
  -3.59999990      -1.23340812E-12
  -3.54999995       3.35728841E-13
  -3.50000000       2.40192827E-12
  -3.45000005       4.42783787E-12
  -3.40000010       5.68758235E-12
  -3.34999990       5.45506609E-12
  -3.29999995       3.26081154E-12
  -3.25000000      -8.50369092E-13
  -3.20000005      -6.15259970E-12
  -3.15000010      -1.12538668E-11
  -3.09999990      -1.43494687E-11
  -3.04999995      -1.37050510E-11
  -3.00000000      -8.27605259E-12
  -2.95000005       1.70803844E-12
  -2.90000010       1.44089497E-11
  -2.84999990       2.64892275E-11
  -2.79999995       3.37670551E-11
  -2.75000000       3.23590772E-11
  -2.70000005       2.00684764E-11
  -2.65000010      -2.38080259E-12
  -2.59999990      -3.07265151E-11
  -2.54999995      -5.75527612E-11
  -2.50000000      -7.38307124E-11
  -2.45000005      -7.14211051E-11
  -2.40000010      -4.59668137E-11
  -2.34999990       6.80147941E-13
  -2.29999995       5.94228000E-11
  -2.25000000       1.14975647E-10
  -2.20000005       1.49197502E-10
  -2.15000010       1.46176751E-10
  -2.09999990       9.78379391E-11
  -2.04999995       8.37049006E-12
  -2.00000000      -1.04234558E-10
  -1.95000005      -2.10704745E-10
  -1.89999998      -2.77168899E-10
  -1.85000002      -2.74775730E-10
  -1.79999995      -1.89798594E-10
  -1.75000000      -3.10913899E-11
  -1.70000005       1.68044162E-10
  -1.64999998       3.55324048E-10
  -1.60000002       4.72014428E-10
  -1.54999995       4.69936479E-10
  -1.50000000       3.28400751E-10
  -1.45000005       6.56754304E-11
  -1.39999998      -2.59674809E-10
  -1.35000002      -5.59863822E-10
  -1.29999995      -7.40095818E-10
  -1.25000000      -7.26840588E-10
  -1.20000005      -4.94254693E-10
  -1.14999998      -8.00430486E-11
  -1.10000002       4.16066293E-10
  -1.04999995       8.53657200E-10
  -1.00000000       1.08925602E-09
 -0.949999988       1.02094533E-09
 -0.899999976       6.26884267E-10
 -0.850000024      -1.55146417E-11
 -0.800000012      -7.38935080E-10
 -0.750000000      -1.32554745E-09
 -0.699999988      -1.56857349E-09
 -0.649999976      -1.33982514E-09
 -0.600000024      -6.42588371E-10
 -0.550000012       3.69287018E-10
 -0.500000000       1.41736456E-09
 -0.449999988       2.16828000E-09
 -0.400000006       2.33156161E-09
 -0.349999994       1.75879711E-09
 -0.300000012       5.12902165E-10
 -0.250000000      -1.11890153E-09
 -0.200000003      -2.68087508E-09
 -0.150000006      -3.66592445E-09
 -0.100000001      -3.66639563E-09
  -5.00000007E-02  -2.51629051E-09
   5.55111512E-16  -3.79457160E-10
   5.00000007E-02   2.25117747E-09
  0.100000001       4.65546046E-09
  0.150000006       6.07155126E-09
  0.200000003       5.91979088E-09
  0.250000000       4.00204270E-09
  0.300000012       6.13252005E-10
  0.349999994      -3.47919604E-09
  0.400000006      -7.19825310E-09
  0.449999988      -9.43070244E-09
  0.500000000      -9.34357836E-09
  0.550000012      -6.65579636E-09
  0.600000024      -1.78147730E-09
  0.649999976       4.20930801E-09
  0.699999988       9.81876980E-09
  0.750000000       1.34911771E-08
  0.800000012       1.40323788E-08
  0.850000024       1.09660645E-08
  0.899999976       4.72350781E-09
  0.949999988      -3.39668671E-09
   1.00000000      -1.15023520E-08
   1.04999995      -1.75546671E-08
   1.10000002      -1.98780246E-08
   1.14999998      -1.76016854E-08
   1.20000005      -1.09164588E-08
   1.25000000      -1.07607034E-09
   1.29999995       9.86133486E-09
   1.35000002       1.94892547E-08
   1.39999998       2.55946375E-08
   1.45000005       2.66545950E-08
   1.50000000       2.21727685E-08
   1.54999995       1.27845574E-08
   1.60000002       1.19715265E-10
   1.64999998      -1.35317206E-08
   1.70000005      -2.56641766E-08
   1.75000000      -3.40118937E-08
   1.79999995      -3.69271618E-08
   1.85000002      -3.36248682E-08
   1.89999998      -2.42748683E-08
   1.95000005      -9.95626337E-09
   2.00000000       7.49329487E-09
   2.04999995       2.56971493E-08
   2.09999990       4.20006359E-08
   2.15000010       5.37588036E-08
   2.20000005       5.86445275E-08
   2.25000000       5.49693482E-08
   2.29999995       4.19977013E-08
   2.34999990       2.02172981E-08
   2.40000010      -8.48819948E-09
   2.45000005      -4.08259524E-08
   2.50000000      -7.22951157E-08
   2.54999995      -9.76340999E-08
   2.59999990      -1.11507340E-07
   2.65000010      -1.09377069E-07
   2.70000005      -8.84544633E-08
   2.75000000      -4.85795688E-08
   2.79999995       7.15106241E-09
   2.84999990       7.21946165E-08
   2.90000010       1.36965795E-07
   2.95000005       1.89917074E-07
   3.00000000       2.19264095E-07
   3.04999995       2.15178005E-07
   3.09999990       1.72111925E-07
   3.15000010       9.08034323E-08
   3.20000005      -2.05602202E-08
   3.25000000      -1.46472189E-07
   3.29999995      -2.65805397E-07
   3.34999990      -3.55053601E-07
   3.40000010      -3.92715435E-07
   3.45000005      -3.64062402E-07
   3.50000000      -2.65283177E-07
   3.54999995      -1.05947663E-07
   3.59999990       9.10572524E-08
   3.65000010       2.92508560E-07
   3.70000005       4.60496153E-07
   3.75000000       5.59813088E-07
   3.79999995       5.65613504E-07
   3.84999990       4.69608381E-07
   3.90000010       2.83214916E-07
   3.95000005       3.66340522E-08
   4.00000000      -2.26287312E-07
   4.05000019      -4.56547951E-07
   4.09999990      -6.10089103E-07
   4.15000010      -6.57230601E-07
   4.19999981      -5.89199885E-07
   4.25000000      -4.20106289E-07
   4.30000019      -1.83776592E-07
   4.34999990       7.38544017E-08
   4.40000010       3.04953602E-07
   4.44999981       4.70050765E-07
   4.50000000       5.45779812E-07
   4.55000019       5.28226565E-07
   4.59999990       4.31262606E-07
   4.65000010       2.80711134E-07
   4.69999981       1.06410809E-07
   4.75000000      -6.51651462E-08
   4.80000019      -2.15368956E-07
   4.84999990      -3.33677974E-07
   4.90000010      -4.14232488E-07
   4.94999981      -4.50614323E-07
   5.00000000      -4.31840533E-07
   5.05000019      -3.42418588E-07
   5.09999990      -1.67963393E-07
   5.15000010       9.43955172E-08
   5.19999981       4.24080298E-07
   5.25000000       7.68664904E-07
   5.30000019       1.04431786E-06
   5.34999990       1.14864929E-06
   5.40000010       9.85929091E-07
   5.44999981       5.00084980E-07
   5.50000000      -2.93268528E-07
   5.55000019      -1.28671797E-06
   5.59999990      -2.28285990E-06
   5.65000010      -3.02356511E-06
   5.69999981      -3.24496500E-06
   5.75000000      -2.74810645E-06
   5.80000019      -1.46830223E-06
   5.84999990       4.76918387E-07
   5.90000010       2.77904132E-06
   5.94999981       4.97879773E-06
   6.00000000       6.55308850E-06
   6.05000019       7.03297565E-06
   6.09999990       6.12626536E-06
   6.15000010       3.81336986E-06
   6.19999981       3.88312429E-07
   6.25000000      -3.57198519E-06
   6.30000019      -7.30995862E-06
   6.34999990      -1.00424486E-05
   6.40000010      -1.11345989E-05
   6.44999981      -1.02513168E-05
   6.50000000      -7.44806675E-06
   6.55000019      -3.17594049E-06
   6.59999990       1.80359962E-06
   6.65000010       6.57651935E-06
   6.69999981       1.02701833E-05
   6.75000000       1.22375222E-05
   6.80000019       1.21875255E-05
   6.84999990       1.02316453E-05
   6.90000010       6.83710186E-06
   6.94999981       2.70167516E-06
   7.00000000      -1.41582655E-06
   7.05000019      -4.86500221E-06
   7.09999990      -7.23056110E-06
   7.15000010      -8.38685992E-06
   7.19999981      -8.47170941E-06
   7.25000000      -7.79358561E-06
   7.30000019      -6.70442296E-06
   7.34999990      -5.47862237E-06
   7.40000010      -4.23531537E-06
   7.44999981      -2.92646541E-06
   7.50000000      -1.39224198E-06
   7.55000019       5.36428900E-07
   7.59999990       2.92377331E-06
   7.65000010       5.64386255E-06
   7.69999981       8.35659284E-06
   7.75000000       1.05591089E-05
   7.80000019       1.17032387E-05
   7.84999990       1.13477017E-05
   7.90000010       9.30064198E-06
   7.94999981       5.70792690E-06
   8.00000000       1.05631830E-06
   8.05000019      -3.91550429E-06
   8.10000038      -8.37778043E-06
   8.14999962      -1.15997573E-05
   8.19999981      -1.31161169E-05
   8.25000000      -1.28223701E-05
   8.30000019      -1.09721068E-05
   8.35000038      -8.07826655E-06
   8.39999962      -4.74992794E-06
   8.44999981      -1.51624431E-06
   8.50000000       1.30672413E-06
   8.55000019       3.66418408E-06
   8.60000038       5.71136934E-06
   8.64999962       7.68149857E-06
   8.69999981       9.71933787E-06
   8.75000000       1.17400223E-05
   8.80000019       1.33666281E-05
   8.85000038       1.39759504E-05
   8.89999962       1.28472666E-05
   8.94999981       9.37472669E-06
   9.00000000       3.28136684E-06
   9.05000019      -5.23081553E-06
   9.10000038      -1.54435747E-05
   9.14999962      -2.62150679E-05
   9.19999981      -3.61829589E-05
   9.25000000      -4.40285257E-05
   9.30000019      -4.87378675E-05
   9.35000038      -4.98009103E-05
   9.39999962      -4.73094806E-05
   9.44999981      -4.19443859E-05
   9.50000000      -3.48681497E-05
   9.55000019      -2.75563798E-05
   9.60000038      -2.16039498E-05
   9.64999962      -1.85335557E-05
   9.69999981      -1.96210622E-05
   9.75000000      -2.57418251E-05
   9.80000019      -3.72405957E-05
   9.85000038      -5.38354034E-05
   9.89999962      -7.45778743E-05
   9.94999981      -9.79012621E-05
   10.0000000      -1.21784025E-04
   10.0500002      -1.44037229E-04
   10.1000004      -1.62691271E-04
   10.1499996      -1.76418762E-04
   10.1999998      -1.84901393E-04
   10.2500000      -1.89040264E-04
   10.3000002      -1.90929684E-04
   10.3500004      -1.93563348E-04
   10.3999996      -2.00307200E-04
   10.4499998      -2.14239219E-04
   10.5000000      -2.37501619E-04
   10.5500002      -2.70823366E-04
   10.6000004      -3.13340744E-04
   10.6499996      -3.62778985E-04
   10.6999998      -4.15973045E-04
   10.7500000      -4.69620223E-04
   10.8000002      -5.21097216E-04
   10.8500004      -5.69149794E-04
   10.8999996      -6.14287623E-04
   10.9499998      -6.58779638E-04
   11.0000000      -7.06238789E-04
   11.0500002      -7.60879717E-04
   11.1000004      -8.26617295E-04
   11.1499996      -9.06217494E-04
   11.1999998      -1.00070983E-03
   11.2500000      -1.10921869E-03
   11.3000002      -1.22927222E-03
   11.3500004      -1.35753944E-03
   11.3999996      -1.49082439E-03
   11.4499998      -1.62708131E-03
   11.5000000      -1.76618388E-03
   11.5500002      -1.91023503E-03
   11.6000004      -2.06331490E-03
   11.6499996      -2.23070849E-03
   11.6999998      -2.41780072E-03
   11.7500000      -2.62894155E-03
   11.8000002      -2.86659529E-03
   11.8500004      -3.13103315E-03
   11.8999996      -3.42067587E-03
   11.9499998      -3.73300374E-03
   12.0000000      -4.06577112E-03
   12.0500002      -4.41816496E-03
   12.1000004      -4.79153357E-03
   12.1499996      -5.18945418E-03
   12.1999998      -5.61709050E-03
   12.2500000      -6.08003652E-03
   12.3000002      -6.58301404E-03
   12.3500004      -7.12885894E-03
   12.3999996      -7.71815889E-03
   12.4499998      -8.34970828E-03
   12.5000000      -9.02167521E-03
   12.5500002      -9.73316189E-03
   12.6000004      -1.04856435E-02
   12.6499996      -1.12838559E-02
   12.6999998      -1.21357730E-02
   12.7500000      -1.30516859E-02
   12.8000002      -1.40425805E-02
   12.8500004      -1.51182972E-02
   12.8999996      -1.62860099E-02
   12.9499998      -1.75494477E-02
   13.0000000      -1.89090949E-02
   13.0500002      -2.03632917E-02
   13.1000004      -2.19099093E-02
   13.1499996      -2.35481206E-02
   13.1999998      -2.52798069E-02
   13.2500000      -2.71102190E-02
   13.3000002      -2.90478207E-02
   13.3500004      -3.11034229E-02
   13.3999996      -3.32888886E-02
   13.4499998      -3.56158055E-02
   13.5000000      -3.80944908E-02
   13.5500002      -4.07335125E-02
   13.6000004      -4.35397737E-02
   13.6499996      -4.65191305E-02
   13.6999998      -4.96772937E-02
   13.7500000      -5.30208349E-02
   13.8000002      -5.65580130E-02
   13.8500004      -6.02993295E-02
   13.8999996      -6.42576441E-02
   13.9499998      -6.84477687E-02
   14.0000000      -7.28857219E-02
   14.0500002      -7.75875747E-02
   14.1000004      -8.25682208E-02
   14.1499996      -8.78403410E-02
   14.1999998      -9.34137255E-02
   14.2500000      -9.92953703E-02
   14.3000002     -0.105490237    
   14.3500004     -0.112002775    
   14.3999996     -0.118838824    
   14.4499998     -0.126007512    
   14.5000000     -0.133522630    
   14.5500002     -0.141403183    
   14.6000004     -0.149672896    
   14.6499996     -0.158358619    
   14.6999998     -0.167488277    
   14.7500000     -0.177088439    
   14.8000002     -0.187182367    
   14.8500004     -0.197788849    
   14.8999996     -0.208921880    
   14.9499998     -0.220591381    
   15.0000000     -0.232804716    
   15.0500002     -0.245568633    
   15.1000004     -0.258891433    
   15.1499996     -0.272784859    
   15.1999998     -0.287265480    
   15.2500000     -0.302355468    
   15.3000002     -0.318082303    
   15.3500004     -0.334477544    
   15.3999996     -0.351574481    
   15.4499998     -0.369405210    
   15.5000000     -0.387997508    
   15.5500002     -0.407372564    
   15.6000004     -0.427543908    
   15.6499996     -0.448518574    
   15.6999998     -0.470300138    
   15.7500000     -0.492893368    
   15.8000002     -0.516308844    
   15.8500004     -0.540566981    
   15.8999996     -0.565698743    
   15.9499998     -0.591743767    
   16.0000000     -0.618745208    
   16.0499992     -0.646743000    
   16.1000004     -0.675766885    
   16.1499996     -0.705832720    
   16.2000008     -0.736941755    
   16.2500000     -0.769085050    
   16.2999992     -0.802250326    
   16.3500004     -0.836431146    
   16.3999996     -0.871633649    
   16.4500008     -0.907880068    
   16.5000000     -0.945207417    
   16.5499992     -0.983660996    
   16.6000004      -1.02328587    
   16.6499996      -1.06411827    
   16.7000008      -1.10617971    
   16.7500000      -1.14947546    
   16.7999992      -1.19399858    
   16.8500004      -1.23973680    
   16.8999996      -1.28667974    
   16.9500008      -1.33482623    
   17.0000000      -1.38418567    
   17.0499992      -1.43477631    
   17.1000004      -1.48662007    
   17.1499996      -1.53973615    
   17.2000008      -1.59413528    
   17.2500000      -1.64981794    
   17.2999992      -1.70677543    
   17.3500004      -1.76499486    
   17.3999996      -1.82446373    
   17.4500008      -1.88517523    
   17.5000000      -1.94712913    
   17.5499992      -2.01033282    
   17.6000004      -2.07479548    
   17.6499996      -2.14052558    
   17.7000008      -2.20752764    
   17.7500000      -2.27579927    
   17.7999992      -2.34533262    
   17.8500004      -2.41611528    
   17.8999996      -2.48813272    
   17.9500008      -2.56136680    
   18.0000000      -2.63579845    
   18.0499992      -2.71140409    
   18.1000004      -2.78815746    
   18.1499996      -2.86602998    
   18.2000008      -2.94499302    
   18.2500000      -3.02502346    
   18.2999992      -3.10610557    
   18.3500004      -3.18823433    
   18.3999996      -3.27140927    
   18.4500008      -3.35563278    
   18.5000000      -3.44089890    
   18.5499992      -3.52718949    
   18.6000004      -3.61446953    
   18.6499996      -3.70269012    
   18.7000008      -3.79179549    
   18.7500000      -3.88173366    
   18.7999992      -3.97246456    
   18.8500004      -4.06396532    
   18.8999996      -4.15622902    
   18.9500008      -4.24925709    
   19.0000000      -4.34304857    
   19.0499992      -4.43758774    
   19.1000004      -4.53283834    
   19.1499996      -4.62874651    
   19.2000008      -4.72524691    
   19.2500000      -4.82227612    
   19.2999992      -4.91978359    
   19.3500004      -5.01773882    
   19.3999996      -5.11613035    
   19.4500008      -5.21495676    
   19.5000000      -5.31421614    
   19.5499992      -5.41388988    
   19.6000004      -5.51394224    
   19.6499996      -5.61431742    
   19.7000008      -5.71495390    
   19.7500000      -5.81579447    
   19.7999992      -5.91680098    
   19.8500004      -6.01795673    
   19.8999996      -6.11926413    
   19.9500008      -6.22073078    
   20.0000000      -6.32235289    
   20.0499992      -6.42410564    
   20.1000004      -6.52593517    
   20.1499996      -6.62776947    
   20.2000008      -6.72953176    
   20.2500000      -6.83116055    
   20.2999992      -6.93262482    
   20.3500004      -7.03392839    
   20.3999996      -7.13510418    
   20.4500008      -7.23619127    
   20.5000000      -7.33721733    
   20.5499992      -7.43817663    
   20.6000004      -7.53902388    
   20.6499996      -7.63968039    
   20.7000008      -7.74005651    
   20.7500000      -7.84007263    
   20.7999992      -7.93968344    
   20.8500004      -8.03888702    
   20.8999996      -8.13771820    
   20.9500008      -8.23623085    
   21.0000000      -8.33447361    
   21.0499992      -8.43247128    
   21.1000004      -8.53020763    
   21.1499996      -8.62762928    
   21.2000008      -8.72466946    
   21.2500000      -8.82126141    
   21.2999992      -8.91736794    
   21.3500004      -9.01298428    
   21.3999996      -9.10814381    
   21.4500008      -9.20289993    
   21.5000000      -9.29730034    
   21.5499992      -9.39137459    
   21.6000004      -9.48511887    
   21.6499996      -9.57849693    
   21.7000008      -9.67146015    
   21.7500000      -9.76395798    
   21.7999992      -9.85595798    
   21.8500004      -9.94745731    
   21.8999996      -10.0384779    
   21.9500008      -10.1290531    
   22.0000000      -10.2192221    
   22.0499992      -10.3090067    
   22.1000004      -10.3984165    
   22.1499996      -10.4874439    
   22.2000008      -10.5760813    
   22.2500000      -10.6643238    
   22.2999992      -10.7521849    
   22.3500004      -10.8396883    
   22.3999996      -10.9268618    
   22.4500008      -11.0137234    
   22.5000000      -11.1002789    
   22.5499992      -11.1865139    
   22.6000004      -11.2724037    
   22.6499996      -11.3579235    
   22.7000008      -11.4430685    
   22.7500000      -11.5278568    
   22.7999992      -11.6123362    
   22.8500004      -11.6965675    
   22.8999996      -11.7806063    
   22.9500008      -11.8644838    
   23.0000000      -11.9481926    
   23.0499992      -12.0316944    
   23.1000004      -12.1149292    
   23.1499996      -12.1978426    
   23.2000008      -12.2804060    
   23.2500000      -12.3626394    
   23.2999992      -12.4446049    
   23.3500004      -12.5263958    
   23.3999996      -12.6081057    
   23.4500008      -12.6898069    
   23.5000000      -12.7715244    
   23.5499992      -12.8532343    
   23.6000004      -12.9348755    
   23.6499996      -13.0163746    
   23.7000008      -13.0976772    
   23.7500000      -13.1787672    
   23.7999992      -13.2596760    
   23.8500004      -13.3404732    
   23.8999996      -13.4212418    
   23.9500008      -13.5020523    
   24.0000000      -13.5829363    
   24.0499992      -13.6638842    
   24.1000004      -13.7448463    
   24.1499996      -13.8257580    
   24.2000008      -13.9065657    
   24.2500000      -13.9872494    
   24.2999992      -14.0678282    
   24.3500004      -14.1483631    
   24.3999996      -14.2289276    
   24.4500008      -14.3095913    
   24.5000000      -14.3903923    
   24.5499992      -14.4713316    
   24.6000004      -14.5523729    
   24.6499996      -14.6334620    
   24.7000008      -14.7145510    
   24.7500000      -14.7956171    
   24.7999992      -14.8766737    
   24.8500004      -14.9577675    
   24.8999996      -15.0389652    
   24.9500008      -15.1203270    
   25.0000000      -15.2018881    
   25.0499992      -15.2836494    
   25.1000004      -15.3655739    
   25.1499996      -15.4476042    
   25.2000008      -15.5296831    
   25.2500000      -15.6117725    
   25.2999992      -15.6938705    
   25.3500004      -15.7760057    
   25.3999996      -15.8582354    
   25.4500008      -15.9406204    
   25.5000000      -16.0232029    
   25.5499992      -16.1059990    
   25.6000004      -16.1889896    
   25.6499996      -16.2721386    
   25.7000008      -16.3553963    
   25.7500000      -16.4387417    
   25.7999992      -16.5221672    
   25.8500004      -16.6057072    
   25.8999996      -16.6894093    
   25.9500008      -16.7733212    
   26.0000000      -16.8574772    
   26.0499992      -16.9418716    
   26.1000004      -17.0264702    
   26.1499996      -17.1112099    
   26.2000008      -17.1960239    
   26.2500000      -17.2808723    
   26.2999992      -17.3657475    
   26.3500004      -17.4506779    
   26.3999996      -17.5357285    
   26.4500008      -17.6209621    
   26.5000000      -17.7064190    
   26.5499992      -17.7921028    
   26.6000004      -17.8779697    
   26.6499996      -17.9639416    
   26.7000008      -18.0499382    
   26.7500000      -18.1358929    
   26.7999992      -18.2217922    
   26.8500004      -18.3076611    
   26.8999996      -18.3935642    
   26.9500008      -18.4795704    
   27.0000000      -18.5657272    
   27.0499992      -18.6520309    
   27.1000004      -18.7384224    
   27.1499996      -18.8248081    
   27.2000008      -18.9110851    
   27.2500000      -18.9971752    
   27.2999992      -19.0830498    
   27.3500004      -19.1687298    
   27.3999996      -19.2542820    
   27.4500008      -19.3397713    
   27.5000000      -19.4252224    
   27.5499992      -19.5106030    
   27.6000004      -19.5958042    
   27.6499996      -19.6806736    
   27.7000008      -19.7650585    
   27.7500000      -19.8488350    
   27.7999992      -19.9319611    
   27.8500004      -20.0144653    
   27.8999996      -20.0964165    
   27.9500008      -20.1779022    
   28.0000000      -20.2589550    
   28.0499992      -20.3395348    
   28.1000004      -20.4195061    
   28.1499996      -20.4986782    
   28.2000008      -20.5768471    
   28.2500000      -20.6538410    
   28.2999992      -20.7295551    
   28.3500004      -20.8039665    
   28.3999996      -20.8770885    
   28.4500008      -20.9489365    
   28.5000000      -21.0194683    
   28.5499992      -21.0885582    
   28.6000004      -21.1559925    
   28.6499996      -21.2215080    
   28.7000008      -21.2848530    
   28.7500000      -21.3458347    
   28.7999992      -21.4043465    
   28.8500004      -21.4603577    
   28.8999996      -21.5138741    
   28.9500008      -21.5648651    
   29.0000000      -21.6132069    
   29.0499992      -21.6586609    
   29.1000004      -21.7008858    
   29.1499996      -21.7394886    
   29.2000008      -21.7741051    
   29.2500000      -21.8044586    
   29.2999992      -21.8303871    
   29.3500004      -21.8518200    
   29.3999996      -21.8687248    
   29.4500008      -21.8810177    
   29.5000000      -21.8884907    
   29.5499992      -21.8907967    
   29.6000004      -21.8874702    
   29.6499996      -21.8779888    
   29.7000008      -21.8618717    
   29.7500000      -21.8387527    
   29.7999992      -21.8083973    
   29.8500004      -21.7706718    
   29.8999996      -21.7254734    
   29.9500008      -21.6726284    
   30.0000000      -21.6118183    
   30.0499992      -21.5425682    
   30.1000004      -21.4642830    
   30.1499996      -21.3763218    
   30.2000008      -21.2781162    
   30.2500000      -21.1692429    
   30.2999992      -21.0494347    
   30.3500004      -20.9185333    
   30.3999996      -20.7763996    
   30.4500008      -20.6228008    
   30.5000000      -20.4573326    
   30.5499992      -20.2794094    
   30.6000004      -20.0883160    
   30.6499996      -19.8833275    
   30.7000008      -19.6638088    
   30.7500000      -19.4293118    
   30.7999992      -19.1795769    
   30.8500004      -18.9144745    
   30.8999996      -18.6338940    
   30.9500008      -18.3376102    
   31.0000000      -18.0252094    
   31.0499992      -17.6960812    
   31.1000004      -17.3494797    
   31.1499996      -16.9846611    
   31.2000008      -16.6010056    
   31.2500000      -16.1981087    
   31.2999992      -15.7757864    
   31.3500004      -15.3340101    
   31.3999996      -14.8727694    
   31.4500008      -14.3919497    
   31.5000000      -13.8912439    
   31.5499992      -13.3701553    
   31.6000004      -12.8280716    
   31.6499996      -12.2643995    
   31.7000008      -11.6786995    
   31.7500000      -11.0707626    
   31.7999992      -10.4406137    
   31.8500004      -9.78843307    
   31.8999996      -9.11441612    
   31.9500008      -8.41865444    
   32.0000000      -7.70105743    
   32.0499992      -6.96136427    
   32.0999985      -6.19923925    
   32.1500015      -5.41440248    
   32.2000008      -4.60676336    
   32.2500000      -3.77648616    
   32.2999992      -2.92397332    
   32.3499985      -2.04976559    
   32.4000015      -1.15440536    
   32.4500008     -0.238311082    
   32.5000000      0.698281467    
   32.5499992       1.65528846    
   32.5999985       2.63267207    
   32.6500015       3.63029528    
   32.7000008       4.64779997    
   32.7500000       5.68455410    
   32.7999992       6.73969126    