  -10.0000000       0.00000000    
  -9.94999981       0.00000000    
  -9.89999962       0.00000000    
  -9.85000038       0.00000000    
  -9.80000019       0.00000000    
  -9.75000000       0.00000000    
  -9.69999981       0.00000000    
  -9.64999962       0.00000000    
  -9.60000038       0.00000000    
  -9.55000019       0.00000000    
  -9.50000000       6.35548771E-32
  -9.44999981       2.35558648E-30
  -9.39999962       2.72396881E-29
  -9.35000038       1.71200595E-28
  -9.30000019       6.69087466E-28
  -9.25000000       1.49410708E-27
  -9.19999981      -1.59054670E-28
  -9.14999962      -1.80415108E-26
  -9.10000038      -9.56403005E-26
  -9.05000019      -3.40641577E-25
  -9.00000000      -9.82476066E-25
  -8.94999981      -2.47478741E-24
  -8.89999962      -5.68879784E-24
  -8.85000038      -1.22105934E-23
  -8.80000019      -2.44821704E-23
  -8.75000000      -4.47909100E-23
  -8.69999981      -7.10460564E-23
  -8.64999962      -8.70752745E-23
  -8.60000038      -4.85395487E-23
  -8.55000019       1.24377364E-22
  -8.50000000       5.20139035E-22
  -8.44999981       1.13595849E-21
  -8.39999962       1.68437641E-21
  -8.35000038       1.36677712E-21
  -8.30000019      -1.17203708E-21
  -8.25000000      -7.32793327E-21
  -8.19999981      -1.70718882E-20
  -8.14999962      -2.65512827E-20
  -8.10000038      -2.57779060E-20
  -8.05000019       1.14697558E-21
  -8.00000000       6.97906629E-20
  -7.94999981       1.80543000E-19
  -7.90000010       2.97025333E-19
  -7.84999990       3.28001928E-19
  -7.80000019       1.32728134E-19
  -7.75000000      -4.26119146E-19
  -7.69999981      -1.36871146E-18
  -7.65000010      -2.44405877E-18
  -7.59999990      -3.01019338E-18
  -7.55000019      -2.07620018E-18
  -7.50000000       1.35499267E-18
  -7.44999981       7.58420314E-18
  -7.40000010       1.52952263E-17
  -7.34999990       2.08459225E-17
  -7.30000019       1.84573806E-17
  -7.25000000       2.00480208E-18
  -7.19999981      -3.13257665E-17
  -7.15000010      -7.62433877E-17
  -7.09999990      -1.15505635E-16
  -7.05000019      -1.20247510E-16
  -7.00000000      -5.77509181E-17
  -6.94999981       9.20360987E-17
  -6.90000010       3.14202187E-16
  -6.84999990       5.39527165E-16
  -6.80000019       6.41719255E-16
  -6.75000000       4.65403735E-16
  -6.69999981      -1.08231891E-16
  -6.65000010      -1.06758603E-15
  -6.59999990      -2.18054593E-15
  -6.55000019      -2.96039667E-15
  -6.50000000      -2.74539535E-15
  -6.44999981      -9.27465396E-16
  -6.40000010       2.69029861E-15
  -6.34999990       7.50882002E-15
  -6.30000019       1.19024706E-14
  -6.25000000       1.33610003E-14
  -6.19999981       9.17020315E-15
  -6.15000010      -2.37016124E-15
  -6.09999990      -2.04610600E-14
  -6.05000019      -4.06162361E-14
  -6.00000000      -5.45282982E-14
  -5.94999981      -5.16825013E-14
  -5.90000010      -2.29802105E-14
  -5.84999990       3.41666121E-14
  -5.80000019       1.10802189E-13
  -5.75000000       1.83815975E-13
  -5.69999981       2.18303538E-13
  -5.65000010       1.76572651E-13
  -5.59999990       3.33659729E-14
  -5.55000019      -2.06141378E-13
  -5.50000000      -4.92051495E-13
  -5.44999981      -7.27370583E-13
  -5.40000010      -7.84760765E-13
  -5.34999990      -5.44974927E-13
  -5.30000019       4.85225026E-14
  -5.25000000       9.33879059E-13
  -5.19999981       1.89708123E-12
  -5.15000010       2.58488673E-12
  -5.09999990       2.58153655E-12
  -5.05000019       1.54785689E-12
  -5.00000000      -6.05028777E-13
  -4.94999981      -3.56207837E-12
  -4.90000010      -6.54212838E-12
  -4.84999990      -8.39335892E-12
  -4.80000019      -7.87854851E-12
  -4.75000000      -4.12047002E-12
  -4.69999981       2.89864356E-12
  -4.65000010       1.19560525E-11
  -4.59999990       2.05243548E-11
  -4.55000019       2.51814142E-11
  -4.50000000       2.25319520E-11
  -4.44999981       1.04964622E-11
  -4.40000010      -1.03753872E-11
  -4.34999990      -3.60536427E-11
  -4.30000019      -5.91397903E-11
  -4.25000000      -7.02705533E-11
  -4.19999981      -6.07827469E-11
  -4.15000010      -2.61268229E-11
  -4.09999990       3.09495693E-11
  -4.05000019       9.86962109E-11
  -4.00000000       1.57284727E-10
  -3.95000005       1.82960119E-10
  -3.90000010       1.55051944E-10
  -3.84999990       6.43175860E-11
  -3.79999995      -7.99042221E-11
  -3.75000000      -2.46666243E-10
  -3.70000005      -3.86940452E-10
  -3.65000010      -4.44591863E-10
  -3.59999990      -3.73343023E-10
  -3.54999995      -1.55711513E-10
  -3.50000000       1.82033277E-10
  -3.45000005       5.65276215E-10
  -3.40000010       8.81533901E-10
  -3.34999990       1.00689390E-09
  -3.29999995       8.44072867E-10
  -3.25000000       3.62509939E-10
  -3.20000005      -3.72499726E-10
  -3.15000010      -1.19452936E-09
  -3.09999990      -1.86295424E-09
  -3.04999995      -2.12181606E-09
  -3.00000000      -1.77948756E-09
  -2.95000005      -7.88085763E-10
  -2.90000010       7.03814673E-10
  -2.84999990       2.34945197E-09
  -2.79999995       3.66654174E-09
  -2.75000000       4.15965484E-09
  -2.70000005       3.47665896E-09
  -2.65000010       1.55608848E-09
  -2.59999990      -1.28496336E-09
  -2.54999995      -4.36505232E-09
  -2.50000000      -6.77358436E-09
  -2.45000005      -7.61044028E-09
  -2.40000010      -6.27546948E-09
  -2.34999990      -2.72487544E-09
  -2.29999995       2.39584486E-09
  -2.25000000       7.81191734E-09
  -2.20000005       1.18936878E-08
  -2.15000010       1.31014790E-08
  -2.09999990       1.04924833E-08
  -2.04999995       4.13892520E-09
  -2.00000000      -4.69491512E-09
  -1.95000005      -1.37214764E-08
  -1.89999998      -2.01577919E-08
  -1.85000002      -2.15123119E-08
  -1.79999995      -1.64277427E-08
  -1.75000000      -5.32051692E-09
  -1.70000005       9.42545597E-09
  -1.64999998       2.38543727E-08
  -1.60000002       3.34040422E-08
  -1.54999995       3.42355548E-08
  -1.50000000       2.45683047E-08
  -1.45000005       5.59699309E-09
  -1.39999998      -1.83724378E-08
  -1.35000002      -4.07439877E-08
  -1.29999995      -5.43109415E-08
  -1.25000000      -5.34054543E-08
  -1.20000005      -3.59177008E-08
  -1.14999998      -4.52821425E-09
  -1.10000002       3.33590755E-08
  -1.04999995       6.71663614E-08
  -1.00000000       8.59191331E-08
 -0.949999988       8.15713506E-08
 -0.899999976       5.19250420E-08
 -0.850000024       2.17579843E-09
 -0.800000012      -5.55966260E-08
 -0.750000000      -1.05131093E-07
 -0.699999988      -1.30356824E-07
 -0.649999976      -1.20318006E-07
 -0.600000024      -7.32095202E-08
 -0.550000012       1.83853799E-09
 -0.500000000       8.60773710E-08
 -0.449999988       1.55562134E-07
 -0.400000006       1.87729739E-07
 -0.349999994       1.68395800E-07
 -0.300000012       9.70851630E-08
 -0.250000000      -1.11391643E-08
 -0.200000003      -1.28338513E-07
 -0.150000006      -2.20588248E-07
 -0.100000001      -2.57506201E-07
  -5.00000007E-02  -2.21835421E-07
   5.55111512E-16  -1.16173780E-07
   5.00000007E-02   3.55271723E-08
  0.100000001       1.92755337E-07
  0.150000006       3.08791073E-07
  0.200000003       3.44114000E-07
  0.250000000       2.79145723E-07
  0.300000012       1.22394965E-07
  0.349999994      -8.89726124E-08
  0.400000006      -2.97151843E-07
  0.449999988      -4.38826078E-07
  0.500000000      -4.63619216E-07
  0.550000012      -3.50671684E-07
  0.600000024      -1.18150354E-07
  0.649999976       1.77920327E-07
  0.699999988       4.56285107E-07
  0.750000000       6.31961314E-07
  0.800000012       6.41109352E-07
  0.850000024       4.62194492E-07
  0.899999976       1.26762117E-07
  0.949999988      -2.84407321E-07
   1.00000000      -6.60054923E-07
   1.04999995      -8.87992030E-07
   1.10000002      -8.87730891E-07
   1.14999998      -6.36862751E-07
   1.20000005      -1.82858116E-07
   1.25000000       3.64462238E-07
   1.29999995       8.59240004E-07
   1.35000002       1.15854596E-06
   1.39999998       1.16363833E-06
   1.45000005       8.51644359E-07
   1.50000000       2.87677096E-07
   1.54999995      -3.87611749E-07
   1.60000002      -9.93205958E-07
   1.64999998      -1.35697974E-06
   1.70000005      -1.36563619E-06
   1.75000000      -1.00079365E-06
   1.79999995      -3.49757300E-07
   1.85000002       4.13824239E-07
   1.89999998       1.07567837E-06
   1.95000005       1.44126113E-06
   2.00000000       1.39391693E-06
   2.04999995       9.33572892E-07
   2.09999990       1.83302276E-07
   2.15000010      -6.40249482E-07
   2.20000005      -1.28617660E-06
   2.25000000      -1.54274926E-06
   2.29999995      -1.30413139E-06
   2.34999990      -6.10092627E-07
   2.40000010       3.55005426E-07
   2.45000005       1.30662761E-06
   2.50000000       1.93796086E-06
   2.54999995       2.01079388E-06
   2.59999990       1.43356840E-06
   2.65000010       3.02631065E-07
   2.70000005      -1.10832298E-06
   2.75000000      -2.41166185E-06
   2.79999995      -3.20787603E-06
   2.84999990      -3.19985543E-06
   2.90000010      -2.28751037E-06
   2.95000005      -6.14222301E-07
   3.00000000       1.45161709E-06
   3.04999995       3.39938333E-06
   3.09999990       4.70444320E-06
   3.15000010       4.96896064E-06
   3.20000005       4.03697049E-06
   3.25000000       2.05053584E-06
   3.29999995      -5.71367934E-07
   3.34999990      -3.22888923E-06
   3.40000010      -5.28895089E-06
   3.45000005      -6.24607310E-06
   3.50000000      -5.85316957E-06
   3.54999995      -4.18645459E-06
   3.59999990      -1.62630477E-06
   3.65000010       1.24094947E-06
   3.70000005       3.77332935E-06
   3.75000000       5.43425085E-06
   3.79999995       5.92043216E-06
   3.84999990       5.22293476E-06
   3.90000010       3.60739386E-06
   3.95000005       1.52294388E-06
   4.00000000      -5.30560897E-07
   4.05000019      -2.13675912E-06
   4.09999990      -3.05987260E-06
   4.15000010      -3.27944576E-06
   4.19999981      -2.95793893E-06
   4.25000000      -2.35733864E-06
   4.30000019      -1.73583771E-06
   4.34999990      -1.25992892E-06
   4.40000010      -9.60007810E-07
   4.44999981      -7.41541385E-07
   4.50000000      -4.44539410E-07
   4.55000019       7.21160447E-08
   4.59999990       8.52876212E-07
   4.65000010       1.80301538E-06
   4.69999981       2.69812949E-06
   4.75000000       3.24506800E-06
   4.80000019       3.17673539E-06
   4.84999990       2.35177504E-06
   4.90000010       8.27563099E-07
   4.94999981      -1.11829854E-06
   5.00000000      -3.02894887E-06
   5.05000019      -4.36572464E-06
   5.09999990      -4.64072536E-06
   5.15000010      -3.55304905E-06
   5.19999981      -1.09483517E-06
   5.25000000       2.40121858E-06
   5.30000019       6.28894577E-06
   5.34999990       9.71023110E-06
   5.40000010       1.17536738E-05
   5.44999981       1.16388519E-05
   5.50000000       8.88637078E-06
   5.55000019       3.43418219E-06
   5.59999990      -4.32978368E-06
   5.65000010      -1.36307035E-05
   5.69999981      -2.34552572E-05
   5.75000000      -3.27532907E-05
   5.80000019      -4.06461149E-05
   5.84999990      -4.65922894E-05
   5.90000010      -5.04733180E-05
   5.94999981      -5.25845389E-05
   6.00000000      -5.35440486E-05
   6.05000019      -5.41556983E-05
   6.09999990      -5.52718921E-05
   6.15000010      -5.76948987E-05
   6.19999981      -6.21325016E-05
   6.25000000      -6.91951645E-05
   6.30000019      -7.93989093E-05
   6.34999990      -9.31328323E-05
   6.40000010      -1.10567664E-04
   6.44999981      -1.31517940E-04
   6.50000000      -1.55311107E-04
   6.55000019      -1.80743853E-04
   6.59999990      -2.06201788E-04
   6.65000010      -2.29977406E-04
   6.69999981      -2.50749581E-04
   6.75000000      -2.68110860E-04
   6.80000019      -2.82973022E-04
   6.84999990      -2.97679479E-04
   6.90000010      -3.15712881E-04
   6.94999981      -3.41002946E-04
   7.00000000      -3.76975746E-04
   7.05000019      -4.25600447E-04
   7.09999990      -4.86732810E-04
   7.15000010      -5.58004132E-04
   7.19999981      -6.35361765E-04
   7.25000000      -7.14169524E-04
   7.30000019      -7.90589314E-04
   7.34999990      -8.62846558E-04
   7.40000010      -9.31986666E-04
   7.44999981      -1.00185769E-03
   7.50000000      -1.07828341E-03
   7.55000019      -1.16763986E-03
   7.59999990      -1.27524324E-03
   7.65000010      -1.40403491E-03
   7.69999981      -1.55396457E-03
   7.75000000      -1.72226969E-03
   7.80000019      -1.90457143E-03
   7.84999990      -2.09646253E-03
   7.90000010      -2.29510944E-03
   7.94999981      -2.50039808E-03
   8.00000000      -2.71529984E-03
   8.05000019      -2.94538238E-03
   8.10000038      -3.19763739E-03
   8.14999962      -3.47899855E-03
   8.19999981      -3.79497674E-03
   8.25000000      -4.14878596E-03
   8.30000019      -4.54115123E-03
   8.35000038      -4.97078709E-03
   8.39999962      -5.43536479E-03
   8.44999981      -5.93266450E-03
   8.50000000      -6.46162545E-03
   8.55000019      -7.02306628E-03
   8.60000038      -7.61995325E-03
   8.64999962      -8.25722702E-03
   8.69999981      -8.94128066E-03
   8.75000000      -9.67921130E-03
   8.80000019      -1.04780337E-02
   8.85000038      -1.13439942E-02
   8.89999962      -1.22821555E-02
   8.94999981      -1.32963462E-02
   9.00000000      -1.43895540E-02
   9.05000019      -1.55646857E-02
   9.10000038      -1.68255381E-02
   9.14999962      -1.81777049E-02
   9.19999981      -1.96290761E-02
   9.25000000      -2.11896822E-02
   9.30000019      -2.28707884E-02
   9.35000038      -2.46833675E-02
   9.39999962      -2.66364533E-02
   9.44999981      -2.87358426E-02
   9.50000000      -3.09838057E-02
   9.55000019      -3.33800539E-02
   9.60000038      -3.59239168E-02
   9.64999962      -3.86172496E-02
   9.69999981      -4.14671339E-02
   9.75000000      -4.44875434E-02
   9.80000019      -4.76993099E-02
   9.85000038      -5.11281155E-02
   9.89999962      -5.48010804E-02
   9.94999981      -5.87428398E-02
   10.0000000      -6.29722476E-02
   10.0500002      -6.75008446E-02
   10.1000004      -7.23335147E-02
   10.1499996      -7.74711445E-02
   10.1999998      -8.29146057E-02
   10.2500000      -8.86686519E-02
   10.3000002      -9.47448686E-02
   10.3500004     -0.101162717    
   10.3999996     -0.107948631    
   10.4499998     -0.115133680    
   10.5000000     -0.122750640    
   10.5500002     -0.130831227    
   10.6000004     -0.139404476    
   10.6499996     -0.148495913    
   10.6999998     -0.158127621    
   10.7500000     -0.168318853    
   10.8000002     -0.179086596    
   10.8500004     -0.190446198    
   10.8999996     -0.202412397    
   10.9499998     -0.215000749    
   11.0000000     -0.228229895    
   11.0500002     -0.242124110    
   11.1000004     -0.256715655    
   11.1499996     -0.272045672    
   11.1999998     -0.288162947    
   11.2500000     -0.305120319    
   11.3000002     -0.322969556    
   11.3500004     -0.341755748    
   11.3999996     -0.361513704    
   11.4499998     -0.382267267    
   11.5000000     -0.404032379    
   11.5500002     -0.426823348    
   11.6000004     -0.450659722    
   11.6499996     -0.475572079    
   11.6999998     -0.501604259    
   11.7500000     -0.528810918    
   11.8000002     -0.557251453    
   11.8500004     -0.586982548    
   11.8999996     -0.618051410    
   11.9499998     -0.650493801    
   12.0000000     -0.684335649    
   12.0500002     -0.719599366    
   12.1000004     -0.756311238    
   12.1499996     -0.794507682    
   12.1999998     -0.834236801    
   12.2500000     -0.875555933    
   12.3000002     -0.918525100    
   12.3500004     -0.963199735    
   12.3999996      -1.00962591    
   12.4499998      -1.05784059    
   12.5000000      -1.10787594    
   12.5500002      -1.15976715    
   12.6000004      -1.21355832    
   12.6499996      -1.26930535    
   12.6999998      -1.32707238    
   12.7500000      -1.38692224    
   12.8000002      -1.44890642    
   12.8500004      -1.51305676    
   12.8999996      -1.57938492    
   12.9499998      -1.64789033    
   13.0000000      -1.71857262    
   13.0500002      -1.79144800    
   13.1000004      -1.86655796    
   13.1499996      -1.94396996    
   13.1999998      -2.02376652    
   13.2500000      -2.10602546    
   13.3000002      -2.19080281    
   13.3500004      -2.27811813    
   13.3999996      -2.36795783    
   13.4499998      -2.46028876    
   13.5000000      -2.55508447    
   13.5500002      -2.65234780    
   13.6000004      -2.75212741    
   13.6499996      -2.85451341    
   13.6999998      -2.95961714    
   13.7500000      -3.06753993    
   13.8000002      -3.17833900    
   13.8500004      -3.29200912    
   13.8999996      -3.40848327    
   13.9499998      -3.52765632    
   14.0000000      -3.64942527    
   14.0500002      -3.77372670    
   14.1000004      -3.90056109    
   14.1499996      -4.02999735    
   14.1999998      -4.16214466    
   14.2500000      -4.29711437    
   14.3000002      -4.43497276    
   14.3500004      -4.57571507    
   14.3999996      -4.71926594    
   14.4499998      -4.86550140    
   14.5000000      -5.01429605    
   14.5500002      -5.16556787    
   14.6000004      -5.31930780    
   14.6499996      -5.47557545    
   14.6999998      -5.63447428    
   14.7500000      -5.79609966    
   14.8000002      -5.96049261    
   14.8500004      -6.12761164    
   14.8999996      -6.29733562    
   14.9499998      -6.46949911    
   15.0000000      -6.64394093    
   15.0500002      -6.82055616    
   15.1000004      -6.99931908    
   15.1499996      -7.18027353    
   15.1999998      -7.36349726    
   15.2500000      -7.54904604    
   15.3000002      -7.73690891    
   15.3500004      -7.92698574    
   15.3999996      -8.11911011    
   15.4499998      -8.31309509    
   15.5000000      -8.50879288    
   15.5500002      -8.70614529    
   15.6000004      -8.90519142    
   15.6499996      -9.10604000    
   15.6999998      -9.30880547    
   15.7500000      -9.51354122    
   15.8000002      -9.72018623    
   15.8500004      -9.92855644    
   15.8999996      -10.1383896    
   15.9499998      -10.3494158    
   16.0000000      -10.5614433    
   16.0499992      -10.7744064    
   16.1000004      -10.9883757    
   16.1499996      -11.2035065    
   16.2000008      -11.4199553    
   16.2500000      -11.6377916    
   16.2999992      -11.8569422    
   16.3500004      -12.0771904    
   16.3999996      -12.2982388    
   16.4500008      -12.5197992    
   16.5000000      -12.7416878    
   16.5499992      -12.9638834    
   16.6000004      -13.1865120    
   16.6499996      -13.4097853    
   16.7000008      -13.6338873    
   16.7500000      -13.8588791    
   16.7999992      -14.0846462    
   16.8500004      -14.3109121    
   16.8999996      -14.5373306    
   16.9500008      -14.7635899    
   17.0000000      -14.9895258    
   17.0499992      -15.2151747    
   17.1000004      -15.4407425    
   17.1499996      -15.6665115    
   17.2000008      -15.8927069    
   17.2500000      -16.1193905    
   17.2999992      -16.3464127    
   17.3500004      -16.5734539    
   17.3999996      -16.8001213    
   17.4500008      -17.0261040    
   17.5000000      -17.2512798    
   17.5499992      -17.4757538    
   17.6000004      -17.6998177    
   17.6499996      -17.9238262    
   17.7000008      -18.1480427    
   17.7500000      -18.3725300    
   17.7999992      -18.5971050    
   17.8500004      -18.8214035    
   17.8999996      -19.0450153    
   17.9500008      -19.2676296    
   18.0000000      -19.4891682    
   18.0499992      -19.7097950    
   18.1000004      -19.9298649    
   18.1499996      -20.1497555    
   18.2000008      -20.3697281    
   18.2500000      -20.5898075    
   18.2999992      -20.8097630    
   18.3500004      -21.0291996    
   18.3999996      -21.2477169    
   18.4500008      -21.4650707    
   18.5000000      -21.6812706    
   18.5499992      -21.8965893    
   18.6000004      -22.1114559    
   18.6499996      -22.3262749    
   18.7000008      -22.5412788    
   18.7500000      -22.7564201    
   18.7999992      -22.9713879    
   18.8500004      -23.1857433    
   18.8999996      -23.3990917    
   18.9500008      -23.6112537    
   19.0000000      -23.8223515    
   19.0499992      -24.0327663    
   19.1000004      -24.2430038    
   19.1499996      -24.4534874    
   19.2000008      -24.6643963    
   19.2500000      -24.8755875    
   19.2999992      -25.0866470    
   19.3500004      -25.2970600    
   19.3999996      -25.5064240    
   19.4500008      -25.7146091    
   19.5000000      -25.9218273    
   19.5499992      -26.1285591    
   19.6000004      -26.3353767    
   19.6499996      -26.5427170    
   19.7000008      -26.7507191    
   19.7500000      -26.9591656    
   19.7999992      -27.1675835    
   19.8500004      -27.3754292    
   19.8999996      -27.5823212    
   19.9500008      -27.7881947    
   20.0000000      -27.9933414    
   20.0499992      -28.1982918    
   20.1000004      -28.4036140    
   20.1499996      -28.6096783    
   20.2000008      -28.8165092    
   20.2500000      -29.0237732    
   20.2999992      -29.2308998    
   20.3500004      -29.4373245    
   20.3999996      -29.6427059    
   20.4500008      -29.8470764    
   20.5000000      -30.0508327    
   20.5499992      -30.2545834    
   20.6000004      -30.4589062    
   20.6499996      -30.6641254    
   20.7000008      -30.8701572    
   20.7500000      -31.0765495    
   20.7999992      -31.2826500    
   20.8500004      -31.4878521    
   20.8999996      -31.6918259    
   20.9500008      -31.8946552    
   21.0000000      -32.0967751    
   21.0499992      -32.2988091    
   21.1000004      -32.5013008    
   21.1499996      -32.7044830    
   21.2000008      -32.9081955    
   21.2500000      -33.1119156    
   21.2999992      -33.3149796    
   21.3500004      -33.5168266    
   21.3999996      -33.7172089    
   21.4500008      -33.9162750    
   21.5000000      -34.1144829    
   21.5499992      -34.3123779    
   21.6000004      -34.5103531    
   21.6499996      -34.7084312    
   21.7000008      -34.9062195    
   21.7500000      -35.1030312    
   21.7999992      -35.2981071    
   21.8500004      -35.4908905    
   21.8999996      -35.6812057    
   21.9500008      -35.8692970    
   22.0000000      -36.0556946    
   22.0499992      -36.2409477    
   22.1000004      -36.4253578    
   22.1499996      -36.6088104    
   22.2000008      -36.7907257    
   22.2500000      -36.9702568    
   22.2999992      -37.1465225    
   22.3500004      -37.3188858    
   22.3999996      -37.4871292    
   22.4500008      -37.6514740    
   22.5000000      -37.8123703    
   22.5499992      -37.9702682    
   22.6000004      -38.1253204    
   22.6499996      -38.2772522    
   22.7000008      -38.4253502    
   22.7500000      -38.5686684    
   22.7999992      -38.7062645    
   22.8500004      -38.8374748    
   22.8999996      -38.9620514    
   22.9500008      -39.0801125    
   23.0000000      -39.1919670    
   23.0499992      -39.2978439    
   23.1000004      -39.3976479    
   23.1499996      -39.4908371    
   23.2000008      -39.5764885    
   23.2500000      -39.6535034    
   23.2999992      -39.7208633    
   23.3500004      -39.7778702    
   23.3999996      -39.8242645    
   23.4500008      -39.8601227    
   23.5000000      -39.8856659    
   23.5499992      -39.9009628    
   23.6000004      -39.9057159    
   23.6499996      -39.8991699    
   23.7000008      -39.8802032    
   23.7500000      -39.8475113    
   23.7999992      -39.7999115    
   23.8500004      -39.7365646    
   23.8999996      -39.6570396    
   23.9500008      -39.5612411    
   24.0000000      -39.4492073    
   24.0499992      -39.3208504    
   24.1000004      -39.1757622    
   24.1499996      -39.0131149    
   24.2000008      -38.8317833    
   24.2500000      -38.6305084    
   24.2999992      -38.4081459    
   24.3500004      -38.1638451    
   24.3999996      -37.8971138    
   24.4500008      -37.6077118    
   24.5000000      -37.2954712    
   24.5499992      -36.9600868    
   24.6000004      -36.6009521    
   24.6499996      -36.2171364    
   24.7000008      -35.8074799    
   24.7500000      -35.3707771    
   24.7999992      -34.9060020    
   24.8500004      -34.4124451    
   24.8999996      -33.8897209    
   24.9500008      -33.3376961    
   25.0000000      -32.7562828    
   25.0499992      -32.1452560    
   25.1000004      -31.5040970    
   25.1499996      -30.8319874    
   25.2000008      -30.1279125    
   25.2500000      -29.3908520    
   25.2999992      -28.6199493    
   25.3500004      -27.8146667    
   25.3999996      -26.9748001    
   25.4500008      -26.1003933    
   25.5000000      -25.1915741    
   25.5499992      -24.2483883    
   25.6000004      -23.2706776    
   25.6499996      -22.2580547    
   25.7000008      -21.2099895    
   25.7500000      -20.1259556    
   25.7999992      -19.0055904    
   25.8500004      -17.8488045    
   25.8999996      -16.6558094    
   25.9500008      -15.4270372    
   26.0000000      -14.1630144    
   26.0499992      -12.8642149    
   26.1000004      -11.5309668    
   26.1499996      -10.1634302    
   26.2000008      -8.76167774    
   26.2500000      -7.32581425    
   26.2999992      -5.85613060    
   26.3500004      -4.35319138    
   26.3999996      -2.81785917    
   26.4500008      -1.25122821    
   26.5000000      0.345502585    
   26.5499992       1.97116971    
   26.6000004       3.62474370    
   26.6499996       5.30536318    
   26.7000008       7.01227713    
   26.7500000       8.74471951    
   26.7999992       10.5017700    
   26.8500004       12.2822466    
   26.8999996       14.0846577    
   26.9500008       15.9072523    
   27.0000000       17.7481308    
   27.0499992       19.6053905    
   27.1000004       21.4772415    
   27.1499996       23.3620758    
   27.2000008       25.2584114    
   27.2500000       27.1648178    
   27.2999992       29.0797596    
   27.3500004       31.0014935    
   27.3999996       32.9279900    
   27.4500008       34.8569832    
   27.5000000       36.7860603    
   27.5499992       38.7128029    
   27.6000004       40.6349373    
   27.6499996       42.5503845    
   27.7000008       44.4572639    
   27.7500000       46.3537712    
   27.7999992       48.2380524    
   27.8500004       50.1080627    
   27.8999996       51.9615173    
   27.9500008       53.7958832    
   28.0000000       55.6085281    
   28.0499992       57.3968697    
   28.1000004       59.1585274    
   28.1499996       60.8914070    
   28.2000008       62.5936737    
   28.2500000       64.2636414    
   28.2999992       65.8996124    
   28.3500004       67.4997177    
   28.3999996       69.0618362    
   28.4500008       70.5836258    
   28.5000000       72.0626678    
   28.5499992       73.4966354    
   28.6000004       74.8834991    
   28.6499996       76.2215958    
   28.7000008       77.5096130    
   28.7500000       78.7464523    
   28.7999992       79.9310303    
   28.8500004       81.0620956    
   28.8999996       82.1381607    
   28.9500008       83.1575470    
   29.0000000       84.1184998    
   29.0499992       85.0194626    
   29.1000004       85.8591919    
   29.1499996       86.6368790    
   29.2000008       87.3521194    
   29.2500000       88.0047150    
   29.2999992       88.5944748    
   29.3500004       89.1210556    
   29.3999996       89.5838165    
   29.4500008       89.9819870    
   29.5000000       90.3147888    
   29.5499992       90.5816727    
   29.6000004       90.7825089    
   29.6499996       90.9176483    
   29.7000008       90.9878387    
   29.7500000       90.9940186    
   29.7999992       90.9370651    
   29.8500004       90.8176117    
   29.8999996       90.6359863    
   29.9500008       90.3923569    
   30.0000000       90.0868988    
   30.0499992       89.7200546    
   30.1000004       89.2927475    
   30.1499996       88.8063889    
   30.2000008       88.2627487    
   30.2500000       87.6637344    
   30.2999992       87.0111008    
   30.3500004       86.3063126    
   30.3999996       85.5504684    
   30.4500008       84.7444839    
   30.5000000       83.8893051    
   30.5499992       82.9861679    
   30.6000004       82.0367661    
   30.6499996       81.0432510    
   30.7000008       80.0081024    
   30.7500000       78.9337845    
   30.7999992       77.8225632    
   30.8500004       76.6763153    
   30.8999996       75.4965363    
   30.9500008       74.2845306    
   31.0000000       73.0416565    
   31.0499992       71.7695923    
   31.1000004       70.4704590    
   31.1499996       69.1467438    
   31.2000008       67.8011703    
   31.2500000       66.4363403    
   31.2999992       65.0545120    
   31.3500004       63.6575279    
   31.3999996       62.2468071    
   31.4500008       60.8235931    
   31.5000000       59.3892136    
   31.5499992       57.9453239    
   31.6000004       56.4939842    
   31.6499996       55.0375595    
   31.7000008       53.5785179    
   31.7500000       52.1191292    
   31.7999992       50.6612663    
   31.8500004       49.2063370    
   31.8999996       47.7553825    
   31.9500008       46.3093300    
   32.0000000       44.8692398    
   32.0499992       43.4364929    
   32.0999985       42.0128326    
   32.1500015       40.6002274    
   32.2000008       39.2005959    
   32.2500000       37.8155708    
   32.2999992       36.4463196    
   32.3499985       35.0935402    
   32.4000015       33.7576256    
   32.4500008       32.4389343    
   32.5000000       31.1380367    
   32.5499992       29.8558559    
   32.5999985       28.5936546    
   32.6500015       27.3528500    
   32.7000008       26.1347370    
   32.7500000       24.9402409    
   32.7999992       23.7697983    