  -10.0000000       0.00000000    
  -9.94999981       0.00000000    
  -9.89999962       0.00000000    
  -9.85000038       0.00000000    
  -9.80000019       0.00000000    
  -9.75000000       0.00000000    
  -9.69999981       0.00000000    
  -9.64999962       0.00000000    
  -9.60000038       0.00000000    
  -9.55000019       6.38236256E-31
  -9.50000000       6.12290896E-30
  -9.44999981       6.95762836E-29
  -9.39999962       7.46150664E-28
  -9.35000038       5.44430852E-27
  -9.30000019       2.77109395E-26
  -9.25000000       1.04612731E-25
  -9.19999981       3.06194462E-25
  -9.14999962       7.18524686E-25
  -9.10000038       1.41178660E-24
  -9.05000019       2.55339070E-24
  -9.00000000       5.02137024E-24
  -8.94999981       1.16375774E-23
  -8.89999962       2.75737999E-23
  -8.85000038       5.52657712E-23
  -8.80000019       7.69283018E-23
  -8.75000000       2.41909987E-23
  -8.69999981      -2.40596391E-22
  -8.64999962      -8.64205427E-22
  -8.60000038      -1.77001242E-21
  -8.55000019      -2.22862854E-21
  -8.50000000      -4.61330704E-22
  -8.44999981       6.06629018E-21
  -8.39999962       1.86787221E-20
  -8.35000038       3.32732594E-20
  -8.30000019       3.51325901E-20
  -8.25000000      -2.52232027E-21
  -8.19999981      -1.08124610E-19
  -8.14999962      -2.81959479E-19
  -8.10000038      -4.49248873E-19
  -8.05000019      -4.20192707E-19
  -8.00000000       9.12346611E-20
  -7.94999981       1.32420160E-18
  -7.90000010       3.17005782E-18
  -7.84999990       4.78498094E-18
  -7.80000019       4.35887332E-18
  -7.75000000      -5.54301483E-19
  -7.69999981      -1.17376193E-17
  -7.65000010      -2.79780409E-17
  -7.59999990      -4.24118363E-17
  -7.55000019      -4.13136416E-17
  -7.50000000      -6.87312974E-18
  -7.44999981       7.38695713E-17
  -7.40000010       1.94139475E-16
  -7.34999990       3.11367114E-16
  -7.30000019       3.40224336E-16
  -7.25000000       1.68419267E-16
  -7.19999981      -2.94031368E-16
  -7.15000010      -1.03413829E-15
  -7.09999990      -1.84847979E-15
  -7.05000019      -2.29908184E-15
  -7.00000000      -1.77737370E-15
  -6.94999981       2.73252591E-16
  -6.90000010       3.98226103E-15
  -6.84999990       8.62639445E-15
  -6.80000019       1.23635123E-14
  -6.75000000       1.23991258E-14
  -6.69999981       5.81029153E-15
  -6.65000010      -8.95854571E-15
  -6.59999990      -3.02748617E-14
  -6.55000019      -5.19312512E-14
  -6.50000000      -6.32189749E-14
  -6.44999981      -5.13767970E-14
  -6.40000010      -6.66524848E-15
  -6.34999990       7.08828951E-14
  -6.30000019       1.65407876E-13
  -6.25000000       2.43276943E-13
  -6.19999981       2.58574764E-13
  -6.15000010       1.67569653E-13
  -6.09999990      -4.98193541E-14
  -6.05000019      -3.67941382E-13
  -6.00000000      -7.02718537E-13
  -5.94999981      -9.19000011E-13
  -5.90000010      -8.64572357E-13
  -5.84999990      -4.28319164E-13
  -5.80000019       3.92216451E-13
  -5.75000000       1.43967271E-12
  -5.69999981       2.39211862E-12
  -5.65000010       2.82706736E-12
  -5.59999990       2.35554675E-12
  -5.55000019       7.96996529E-13
  -5.50000000      -1.66416522E-12
  -5.44999981      -4.41496275E-12
  -5.40000010      -6.50619445E-12
  -5.34999990      -6.91925336E-12
  -5.30000019      -4.95654559E-12
  -5.25000000      -6.31844674E-13
  -5.19999981       5.10747868E-12
  -5.15000010       1.04799112E-11
  -5.09999990       1.33559752E-11
  -5.05000019       1.20469303E-11
  -5.00000000       6.14757117E-12
  -4.94999981      -2.92492029E-12
  -4.90000010      -1.20396861E-11
  -4.84999990      -1.72752923E-11
  -4.80000019      -1.55075952E-11
  -4.75000000      -6.15146562E-12
  -4.69999981       7.71057090E-12
  -4.65000010       1.95741114E-11
  -4.59999990       2.15331121E-11
  -4.55000019       7.79195632E-12
  -4.50000000      -2.14239321E-11
  -4.44999981      -5.72681486E-11
  -4.40000010      -8.27605831E-11
  -4.34999990      -7.74201259E-11
  -4.30000019      -2.56234044E-11
  -4.25000000       7.35914871E-11
  -4.19999981       1.99123038E-10
  -4.15000010       3.07123021E-10
  -4.09999990       3.40111855E-10
  -4.05000019       2.45934384E-10
  -4.00000000       2.40085837E-12
  -3.95000005      -3.60537988E-10
  -3.90000010      -7.51276208E-10
  -3.84999990      -1.02845021E-09
  -3.79999995      -1.03745035E-09
  -3.75000000      -6.65959454E-10
  -3.70000005       9.66362754E-11
  -3.65000010       1.11787601E-09
  -3.59999990       2.12114926E-09
  -3.54999995       2.73891310E-09
  -3.50000000       2.61785260E-09
  -3.45000005       1.55307267E-09
  -3.40000010      -3.89731081E-10
  -3.34999990      -2.81317414E-09
  -3.29999995      -5.02910202E-09
  -3.25000000      -6.21661256E-09
  -3.20000005      -5.67346525E-09
  -3.15000010      -3.09628923E-09
  -3.09999990       1.20325216E-09
  -3.04999995       6.24096685E-09
  -3.00000000       1.05236939E-08
  -2.95000005       1.24330510E-08
  -2.90000010       1.07496039E-08
  -2.84999990       5.16791276E-09
  -2.79999995      -3.38019679E-09
  -2.75000000      -1.27525341E-08
  -2.70000005      -2.00456327E-08
  -2.65000010      -2.24063683E-08
  -2.59999990      -1.80061210E-08
  -2.54999995      -6.87680535E-09
  -2.50000000       8.70862760E-09
  -2.45000005       2.45375844E-08
  -2.40000010       3.54781413E-08
  -2.34999990       3.70143098E-08
  -2.29999995       2.68739182E-08
  -2.25000000       6.21235241E-09
  -2.20000005      -2.01351451E-08
  -2.15000010      -4.45918964E-08
  -2.09999990      -5.88683839E-08
  -2.04999995      -5.65892400E-08
  -2.00000000      -3.57350665E-08
  -1.95000005      -4.21541274E-11
  -1.89999998       4.12883701E-08
  -1.85000002       7.57538885E-08
  -1.79999995       9.11611906E-08
  -1.75000000       7.96994755E-08
  -1.70000005       4.11772731E-08
  -1.64999998      -1.57929723E-08
  -1.60000002      -7.53684759E-08
  -1.54999995      -1.18683758E-07
  -1.50000000      -1.29657565E-07
  -1.45000005      -1.00672956E-07
  -1.39999998      -3.62031649E-08
  -1.35000002       4.71148489E-08
  -1.29999995       1.24457898E-07
  -1.25000000       1.70035278E-07
  -1.20000005       1.65531944E-07
  -1.14999998       1.07082094E-07
  -1.10000002       8.23327717E-09
  -1.04999995      -1.02593077E-07
  -1.00000000      -1.89949290E-07
 -0.949999988      -2.22487216E-07
 -0.899999976      -1.83966037E-07
 -0.850000024      -8.03794862E-08
 -0.800000012       5.96770562E-08
 -0.750000000       1.92300178E-07
 -0.699999988       2.71606467E-07
 -0.649999976       2.65206182E-07
 -0.600000024       1.66746247E-07
 -0.550000012       8.76620332E-10
 -0.500000000      -1.81920598E-07
 -0.449999988      -3.19987237E-07
 -0.400000006      -3.60621186E-07
 -0.349999994      -2.79326287E-07
 -0.300000012      -9.14077702E-08
 -0.250000000       1.48968567E-07
 -0.200000003       3.63334379E-07
 -0.150000006       4.73567610E-07
 -0.100000001       4.29201947E-07
  -5.00000007E-02   2.28198445E-07
   5.55111512E-16  -7.67889432E-08
   5.00000007E-02  -3.90488708E-07
  0.100000001      -6.03329397E-07
  0.150000006      -6.28023372E-07
  0.200000003      -4.32666809E-07
  0.250000000      -5.84705262E-08
  0.300000012       3.85797421E-07
  0.349999994       7.53430925E-07
  0.400000006       9.06022592E-07
  0.449999988       7.62300942E-07
  0.500000000       3.33069266E-07
  0.550000012      -2.71348938E-07
  0.600000024      -8.66861797E-07
  0.649999976      -1.24954909E-06
  0.699999988      -1.26260738E-06
  0.750000000      -8.55004316E-07
  0.800000012      -1.11028534E-07
  0.850000024       7.62487389E-07
  0.899999976       1.49160485E-06
  0.949999988       1.81934820E-06
   1.00000000       1.59324168E-06
   1.04999995       8.27341808E-07
   1.10000002      -2.84672467E-07
   1.14999998      -1.41481394E-06
   1.20000005      -2.19540993E-06
   1.25000000      -2.33656920E-06
   1.29999995      -1.72976877E-06
   1.35000002      -5.01818477E-07
   1.39999998       1.00358568E-06
   1.45000005       2.31770332E-06
   1.50000000       2.98878831E-06
   1.54999995       2.73232786E-06
   1.60000002       1.54079783E-06
   1.64999998      -2.86962035E-07
   1.70000005      -2.21394453E-06
   1.75000000      -3.61749221E-06
   1.79999995      -3.98407201E-06
   1.85000002      -3.08665221E-06
   1.89999998      -1.08538950E-06
   1.95000005       1.48788342E-06
   2.00000000       3.86658485E-06
   2.04999995       5.27401153E-06
   2.09999990       5.17076251E-06
   2.15000010       3.44732939E-06
   2.20000005       4.95573147E-07
   2.25000000      -2.87352395E-06
   2.29999995      -5.65172149E-06
   2.34999990      -6.93505854E-06
   2.40000010      -6.21519439E-06
   2.45000005      -3.56739406E-06
   2.50000000       3.31783980E-07
   2.54999995       4.37442714E-06
   2.59999990       7.33775823E-06
   2.65000010       8.25681946E-06
   2.70000005       6.73935710E-06
   2.75000000       3.12016186E-06
   2.79999995      -1.60328364E-06
   2.84999990      -6.04602974E-06
   2.90000010      -8.84662313E-06
   2.95000005      -9.09139180E-06
   3.00000000      -6.61866534E-06
   3.04999995      -2.10065423E-06
   3.09999990       3.13396299E-06
   3.15000010       7.49281389E-06
   3.20000005       9.61308342E-06
   3.25000000       8.80234620E-06
   3.29999995       5.28326336E-06
   3.34999990       1.54243651E-07
   3.40000010      -4.93472680E-06
   3.45000005      -8.29996043E-06
   3.50000000      -8.77710499E-06
   3.54999995      -6.13098746E-06
   3.59999990      -1.18079311E-06
   3.65000010       4.41628345E-06
   3.70000005       8.67196377E-06
   3.75000000       9.91595334E-06
   3.79999995       7.38369727E-06
   3.84999990       1.54673614E-06
   3.90000010      -5.93927643E-06
   3.95000005      -1.26784917E-05
   4.00000000      -1.62547749E-05
   4.05000019      -1.50160531E-05
   4.09999990      -8.67749714E-06
   4.15000010       1.46007642E-06
   4.19999981       1.27714166E-05
   4.25000000       2.19980866E-05
   4.30000019       2.61833957E-05
   4.34999990       2.35792213E-05
   4.40000010       1.42476292E-05
   4.44999981       1.60462321E-07
   4.50000000      -1.52559096E-05
   4.55000019      -2.80174518E-05
   4.59999990      -3.46709276E-05
   4.65000010      -3.32592936E-05
   4.69999981      -2.38790508E-05
   4.75000000      -8.66181927E-06
   4.80000019       8.81693722E-06
   4.84999990       2.45272149E-05
   4.90000010       3.50769151E-05
   4.94999981       3.85823405E-05
   5.00000000       3.50622504E-05
   5.05000019       2.62502072E-05
   5.09999990       1.49020307E-05
   5.15000010       3.83188308E-06
   5.19999981      -5.00792248E-06
   5.25000000      -1.11085301E-05
   5.30000019      -1.54687241E-05
   5.34999990      -2.01361163E-05
   5.40000010      -2.73949518E-05
   5.44999981      -3.88875415E-05
   5.50000000      -5.49773031E-05
   5.55000019      -7.45772195E-05
   5.59999990      -9.55057185E-05
   5.65000010      -1.15246396E-04
   5.69999981      -1.31842215E-04
   5.75000000      -1.44600141E-04
   5.80000019      -1.54341309E-04
   5.84999990      -1.63086486E-04
   5.90000010      -1.73268912E-04
   5.94999981      -1.86744903E-04
   6.00000000      -2.03965232E-04
   6.05000019      -2.23638577E-04
   6.09999990      -2.43065690E-04
   6.15000010      -2.59095628E-04
   6.19999981      -2.69426644E-04
   6.25000000      -2.73823302E-04
   6.30000019      -2.74805614E-04
   6.34999990      -2.77501735E-04
   6.40000010      -2.88606709E-04
   6.44999981      -3.14683275E-04
   6.50000000      -3.60279722E-04
   6.55000019      -4.26443381E-04
   6.59999990      -5.10132930E-04
   6.65000010      -6.04790810E-04
   6.69999981      -7.01993471E-04
   6.75000000      -7.93760642E-04
   6.80000019      -8.74874298E-04
   6.84999990      -9.44521511E-04
   6.90000010      -1.00674143E-03
   6.94999981      -1.06949988E-03
   7.00000000      -1.14261592E-03
   7.05000019      -1.23512221E-03
   7.09999990      -1.35282625E-03
   7.15000010      -1.49680569E-03
   7.19999981      -1.66330347E-03
   7.25000000      -1.84508623E-03
   7.30000019      -2.03388860E-03
   7.34999990      -2.22323672E-03
   7.40000010      -2.41082185E-03
   7.44999981      -2.59971968E-03
   7.50000000      -2.79808417E-03
   7.55000019      -3.01740039E-03
   7.59999990      -3.26980068E-03
   7.65000010      -3.56522738E-03
   7.69999981      -3.90926190E-03
   7.75000000      -4.30222740E-03
   7.80000019      -4.73980093E-03
   7.84999990      -5.21489326E-03
   7.90000010      -5.72021119E-03
   7.94999981      -6.25070371E-03
   8.00000000      -6.80518290E-03
   8.05000019      -7.38666579E-03
   8.10000038      -8.00142903E-03
   8.14999962      -8.65716394E-03
   8.19999981      -9.36090760E-03
   8.25000000      -1.01174992E-02
   8.30000019      -1.09291216E-02
   8.35000038      -1.17961233E-02
   8.39999962      -1.27188675E-02
   8.44999981      -1.37000242E-02
   8.50000000      -1.47464676E-02
   8.55000019      -1.58700868E-02
   8.60000038      -1.70870740E-02
   8.64999962      -1.84157267E-02
   8.69999981      -1.98732726E-02
   8.75000000      -2.14725863E-02
   8.80000019      -2.32197382E-02
   8.85000038      -2.51131710E-02
   8.89999962      -2.71448717E-02
   8.94999981      -2.93033496E-02
   9.00000000      -3.15777510E-02
   9.05000019      -3.39620598E-02
   9.10000038      -3.64582986E-02
   9.14999962      -3.90778705E-02
   9.19999981      -4.18406464E-02
   9.25000000      -4.47720662E-02
   9.30000019      -4.78989333E-02
   9.35000038      -5.12450710E-02
   9.39999962      -5.48279732E-02
   9.44999981      -5.86573556E-02
   9.50000000      -6.27359673E-02
   9.55000019      -6.70624822E-02
   9.60000038      -7.16356412E-02
   9.64999962      -7.64585808E-02
   9.69999981      -8.15421194E-02
   9.75000000      -8.69060382E-02
   9.80000019      -9.25780758E-02
   9.85000038      -9.85907391E-02
   9.89999962     -0.104976684    
   9.94999981     -0.111763969    
   10.0000000     -0.118972316    
   10.0500002     -0.126611441    
   10.1000004     -0.134681880    
   10.1499996     -0.143178374    
   10.1999998     -0.152094737    
   10.2500000     -0.161429301    
   10.3000002     -0.171189502    
   10.3500004     -0.181394130    
   10.3999996     -0.192073122    
   10.4499998     -0.203264311    
   10.5000000     -0.215008274    
   10.5500002     -0.227342337    
   10.6000004     -0.240295395    
   10.6499996     -0.253885061    
   10.6999998     -0.268117785    
   10.7500000     -0.282992691    
   10.8000002     -0.298507422    
   10.8500004     -0.314665467    
   10.8999996     -0.331482083    
   10.9499998     -0.348987758    
   11.0000000     -0.367227405    
   11.0500002     -0.386255443    
   11.1000004     -0.406127483    
   11.1499996     -0.426890820    
   11.1999998     -0.448576033    
   11.2500000     -0.471192241    
   11.3000002     -0.494727641    
   11.3500004     -0.519155562    
   11.3999996     -0.544444442    
   11.4499998     -0.570569575    
   11.5000000     -0.597523868    
   11.5500002     -0.625323415    
   11.6000004     -0.654007494    
   11.6499996     -0.683631718    
   11.6999998     -0.714256823    
   11.7500000     -0.745935500    
   11.8000002     -0.778701425    
   11.8500004     -0.812563062    
   11.8999996     -0.847504854    
   11.9499998     -0.883494973    
   12.0000000     -0.920497656    
   12.0500002     -0.958485901    
   12.1000004     -0.997452497    
   12.1499996      -1.03741360    
   12.1999998      -1.07840490    
   12.2500000      -1.12047291    
   12.3000002      -1.16365993    
   12.3500004      -1.20799124    
   12.3999996      -1.25346589    
   12.4499998      -1.30005443    
   12.5000000      -1.34770501    
   12.5500002      -1.39635468    
   12.6000004      -1.44594419    
   12.6499996      -1.49643087    
   12.6999998      -1.54779506    
   12.7500000      -1.60004127    
   12.8000002      -1.65318930    
   12.8500004      -1.70726204    
   12.8999996      -1.76227188    
   12.9499998      -1.81820953    
   13.0000000      -1.87503958    
   13.0500002      -1.93270314    
   13.1000004      -1.99112725    
   13.1499996      -2.05023766    
   13.1999998      -2.10997105    
   13.2500000      -2.17028284    
   13.3000002      -2.23114777    
   13.3500004      -2.29255557    
   13.3999996      -2.35449910    
   13.4499998      -2.41696334    
   13.5000000      -2.47991395    
   13.5500002      -2.54329586    
   13.6000004      -2.60703206    
   13.6499996      -2.67103505    
   13.6999998      -2.73521543    
   13.7500000      -2.79949427    
   13.8000002      -2.86380863    
   13.8500004      -2.92811155    
   13.8999996      -2.99236846    
   13.9499998      -3.05654454    
   14.0000000      -3.12059736    
   14.0500002      -3.18446684    
   14.1000004      -3.24807525    
   14.1499996      -3.31133056    
   14.1999998      -3.37413645    
   14.2500000      -3.43640518    
   14.3000002      -3.49806643    
   14.3500004      -3.55907297    
   14.3999996      -3.61939645    
   14.4499998      -3.67901897    
   14.5000000      -3.73791885    
   14.5500002      -3.79605699    
   14.6000004      -3.85336781    
   14.6499996      -3.90975642    
   14.6999998      -3.96510530    
   14.7500000      -4.01928902    
   14.8000002      -4.07218981    
   14.8500004      -4.12371492    
   14.8999996      -4.17380333    
   14.9499998      -4.22242880    
   15.0000000      -4.26959085    
   15.0500002      -4.31530190    
   15.1000004      -4.35956812    
   15.1499996      -4.40237617    
   15.1999998      -4.44368696    
   15.2500000      -4.48343134    
   15.3000002      -4.52152395    
   15.3500004      -4.55787230    
   15.3999996      -4.59239340    
   15.4499998      -4.62502575    
   15.5000000      -4.65573549    
   15.5500002      -4.68451357    
   15.6000004      -4.71137094    
   15.6499996      -4.73632765    
   15.6999998      -4.75940132    
   15.7500000      -4.78059959    
   15.8000002      -4.79991579    
   15.8500004      -4.81733036    
   15.8999996      -4.83281422    
   15.9499998      -4.84633827    
   16.0000000      -4.85787725    
   16.0499992      -4.86741590    
   16.1000004      -4.87494898    
   16.1499996      -4.88048124    
   16.2000008      -4.88402605    
   16.2500000      -4.88560104    
   16.2999992      -4.88522530    
   16.3500004      -4.88292027    
   16.3999996      -4.87871218    
   16.4500008      -4.87263155    
   16.5000000      -4.86471987    
   16.5499992      -4.85502625    
   16.6000004      -4.84360695    
   16.6499996      -4.83051968    
   16.7000008      -4.81581831    
   16.7500000      -4.79954672    
   16.7999992      -4.78173351    
   16.8500004      -4.76239347    
   16.8999996      -4.74153042    
   16.9500008      -4.71914768    
   17.0000000      -4.69525766    
   17.0499992      -4.66989231    
   17.1000004      -4.64310884    
   17.1499996      -4.61498833    
   17.2000008      -4.58562946    
   17.2500000      -4.55513620    
   17.2999992      -4.52360439    
   17.3500004      -4.49111128    
   17.3999996      -4.45771122    
   17.4500008      -4.42343664    
   17.5000000      -4.38830996    
   17.5499992      -4.35235357    
   17.6000004      -4.31560612    
   17.6499996      -4.27812243    
   17.7000008      -4.23997593    
   17.7500000      -4.20124722    
   17.7999992      -4.16201210    
   17.8500004      -4.12233067    
   17.8999996      -4.08224344    
   17.9500008      -4.04177189    
   18.0000000      -4.00093174    
   18.0499992      -3.95974684    
   18.1000004      -3.91826367    
   18.1499996      -3.87655711    
   18.2000008      -3.83472538    
   18.2500000      -3.79287791    
   18.2999992      -3.75111675    
   18.3500004      -3.70952010    
   18.3999996      -3.66812944    
   18.4500008      -3.62695336    
   18.5000000      -3.58597779    
   18.5499992      -3.54518318    
   18.6000004      -3.50456333    
   18.6499996      -3.46413445    
   18.7000008      -3.42393517    
   18.7500000      -3.38401699    
   18.7999992      -3.34443092    
   18.8500004      -3.30521321    
   18.8999996      -3.26638389    
   18.9500008      -3.22795010    
   19.0000000      -3.18992186    
   19.0499992      -3.15232730    
   19.1000004      -3.11522150    
   19.1499996      -3.07868552    
   19.2000008      -3.04281163    
   19.2500000      -3.00767875    
   19.2999992      -2.97332835    
   19.3500004      -2.93975091    
   19.3999996      -2.90688443    
   19.4500008      -2.87463403    
   19.5000000      -2.84290266    
   19.5499992      -2.81162214    
   19.6000004      -2.78077483    
   19.6499996      -2.75039911    
   19.7000008      -2.72057199    
   19.7500000      -2.69138122    
   19.7999992      -2.66289210    
   19.8500004      -2.63512945    
   19.8999996      -2.60807037    
   19.9500008      -2.58166480    
   20.0000000      -2.55586147    
   20.0499992      -2.53063679    
   20.1000004      -2.50601053    
   20.1499996      -2.48204207    
   20.2000008      -2.45880651    
   20.2500000      -2.43635964    
   20.2999992      -2.41470695    
   20.3500004      -2.39379096    
   20.3999996      -2.37350106    
   20.4500008      -2.35370421    
   20.5000000      -2.33428907    
   20.5499992      -2.31520033    
   20.6000004      -2.29645467    
   20.6499996      -2.27812958    
   20.7000008      -2.26032877    
   20.7500000      -2.24313998    
   20.7999992      -2.22659945    
   20.8500004      -2.21068072    
   20.8999996      -2.19530916    
   20.9500008      -2.18040037    
   21.0000000      -2.16590118    
   21.0499992      -2.15181875    
   21.1000004      -2.13822007    
   21.1499996      -2.12520552    
   21.2000008      -2.11285782    
   21.2500000      -2.10119534    
   21.2999992      -2.09014630    
   21.3500004      -2.07955599    
   21.3999996      -2.06923318    
   21.4500008      -2.05901599    
   21.5000000      -2.04883218    
   21.5499992      -2.03873539    
   21.6000004      -2.02889323    
   21.6499996      -2.01953721    
   21.7000008      -2.01088285    
   21.7500000      -2.00305700    
   21.7999992      -1.99605298    
   21.8500004      -1.98973858    
   21.8999996      -1.98390543    
   21.9500008      -1.97834873    
   22.0000000      -1.97294497    
   22.0499992      -1.96769571    
   22.1000004      -1.96272278    
   22.1499996      -1.95821905    
   22.2000008      -1.95436978    
   22.2500000      -1.95128357    
   22.2999992      -1.94895566    
   22.3500004      -1.94728136    
   22.3999996      -1.94611192    
   22.4500008      -1.94533157    
   22.5000000      -1.94492257    
   22.5499992      -1.94499016    
   22.6000004      -1.94573641    
   22.6499996      -1.94739223    
   22.7000008      -1.95013452    
   22.7500000      -1.95402312    
   22.7999992      -1.95898283    
   22.8500004      -1.96484256    
   22.8999996      -1.97141421    
   22.9500008      -1.97858119    
   23.0000000      -1.98636293    
   23.0499992      -1.99492705    
   23.1000004      -2.00454259    
   23.1499996      -2.01549459    
   23.2000008      -2.02799463    
   23.2500000      -2.04211903    
   23.2999992      -2.05780673    
   23.3500004      -2.07491350    
   23.3999996      -2.09330130    
   23.4500008      -2.11292768    
   23.5000000      -2.13389874    
   23.5499992      -2.15645933    
   23.6000004      -2.18092585    
   23.6499996      -2.20758843    
   23.7000008      -2.23662257    
   23.7500000      -2.26804662    
   23.7999992      -2.30174446    
   23.8500004      -2.33754706    
   23.8999996      -2.37533593    
   23.9500008      -2.41513348    
   24.0000000      -2.45713520    
   24.0499992      -2.50167346    
   24.1000004      -2.54912806    
   24.1499996      -2.59981370    
   24.2000008      -2.65389609    
   24.2500000      -2.71136880    
   24.2999992      -2.77209997    
   24.3500004      -2.83593678    
   24.3999996      -2.90281940    
   24.4500008      -2.97285986    
   24.5000000      -3.04635358    
   24.5499992      -3.12371302    
   24.6000004      -3.20535469    
   24.6499996      -3.29157495    
   24.7000008      -3.38247609    
   24.7500000      -3.47796535    
   24.7999992      -3.57783413    
   24.8500004      -3.68188477    
   24.8999996      -3.79005504    
   24.9500008      -3.90249085    
   25.0000000      -4.01954031    
   25.0499992      -4.14166641    
   25.1000004      -4.26931334    
   25.1499996      -4.40278149    
   25.2000008      -4.54215765    
   25.2500000      -4.68733025    
   25.2999992      -4.83808136    
   25.3500004      -4.99421787    
   25.3999996      -5.15568924    
   25.4500008      -5.32264423    
   25.5000000      -5.49540329    
   25.5499992      -5.67435741    
   25.6000004      -5.85983753    
   25.6499996      -6.05200434    
   25.7000008      -6.25080633    
   25.7500000      -6.45602226    
   25.7999992      -6.66736889    
   25.8500004      -6.88463545    
   25.8999996      -7.10778236    
   25.9500008      -7.33696938    
   26.0000000      -7.57250214    
   26.0499992      -7.81471157    
   26.1000004      -8.06382370    
   26.1499996      -8.31987000    
   26.2000008      -8.58266449    
   26.2500000      -8.85187626    
   26.2999992      -9.12714386    
   26.3500004      -9.40819836    
   26.3999996      -9.69494820    
   26.4500008      -9.98747635    
   26.5000000      -10.2859640    
   26.5499992      -10.5905704    
   26.6000004      -10.9013233    
   26.6499996      -11.2180414    
   26.7000008      -11.5403585    
   26.7500000      -11.8678064    
   26.7999992      -12.1999388    
   26.8500004      -12.5364351    
   26.8999996      -12.8771544    
   26.9500008      -13.2221050    
   27.0000000      -13.5713577    
   27.0499992      -13.9249239    
   27.1000004      -14.2826576    
   27.1499996      -14.6442213    
   27.2000008      -15.0091219    
   27.2500000      -15.3768044    
   27.2999992      -15.7467556    
   27.3500004      -16.1185894    
   27.3999996      -16.4920654    
   27.4500008      -16.8670406    
   27.5000000      -17.2433796    
   27.5499992      -17.6208534    
   27.6000004      -17.9990940    
   27.6499996      -18.3775806    
   27.7000008      -18.7557163    
   27.7500000      -19.1329193    
   27.7999992      -19.5087147    
   27.8500004      -19.8827744    
   27.8999996      -20.2548943    
   27.9500008      -20.6249275    
   28.0000000      -20.9926796    
   28.0499992      -21.3578320    
   28.1000004      -21.7199173    
   28.1499996      -22.0783577    
   28.2000008      -22.4325237    
   28.2500000      -22.7818413    
   28.2999992      -23.1258545    
   28.3500004      -23.4642277    
   28.3999996      -23.7967148    
   28.4500008      -24.1230793    
   28.5000000      -24.4430256    
   28.5499992      -24.7561569    
   28.6000004      -25.0619850    
   28.6499996      -25.3599930    
   28.7000008      -25.6497078    
   28.7500000      -25.9307613    
   28.7999992      -26.2029171    
   28.8500004      -26.4660282    
   28.8999996      -26.7199783    
   28.9500008      -26.9645996    
   29.0000000      -27.1996307    
   29.0499992      -27.4247074    
   29.1000004      -27.6394176    
   29.1499996      -27.8433800    
   29.2000008      -28.0363007    
   29.2500000      -28.2180195    
   29.2999992      -28.3884830    
   29.3500004      -28.5476818    
   29.3999996      -28.6955719    
   29.4500008      -28.8320236    
   29.5000000      -28.9568024    
   29.5499992      -29.0696297    
   29.6000004      -29.1702614    
   29.6499996      -29.2585716    
   29.7000008      -29.3346004    
   29.7500000      -29.3985481    
   29.7999992      -29.4506912    
   29.8500004      -29.4912872    
   29.8999996      -29.5204849    
   29.9500008      -29.5382767    
   30.0000000      -29.5445213    
   30.0499992      -29.5390415    
   30.1000004      -29.5217152    
   30.1499996      -29.4925785    
   30.2000008      -29.4518509    
   30.2500000      -29.3998852    
   30.2999992      -29.3370972    
   30.3500004      -29.2638474    
   30.3999996      -29.1803722    
   30.4500008      -29.0867634    
   30.5000000      -28.9830418    
   30.5499992      -28.8692627    
   30.6000004      -28.7456055    
   30.6499996      -28.6124401    
   30.7000008      -28.4703026    
   30.7500000      -28.3198051    
   30.7999992      -28.1615086    
   30.8500004      -27.9958210    
   30.8999996      -27.8229313    
   30.9500008      -27.6428814    
   31.0000000      -27.4556332    
   31.0499992      -27.2612419    
   31.1000004      -27.0599346    
   31.1499996      -26.8521576    
   31.2000008      -26.6385155    
   31.2500000      -26.4196606    
   31.2999992      -26.1961555    
   31.3500004      -25.9683857    
   31.3999996      -25.7365494    
   31.4500008      -25.5007305    
   31.5000000      -25.2610340    
   31.5499992      -25.0177059    
   31.6000004      -24.7712002    
   31.6499996      -24.5221577    
   31.7000008      -24.2712841    
   31.7500000      -24.0192013    
   31.7999992      -23.7663212    
   31.8500004      -23.5127773    
   31.8999996      -23.2584896    
   31.9500008      -23.0032845    
   32.0000000      -22.7470875    
   32.0499992      -22.4900360    
   32.0999985      -22.2325497    
   32.1500015      -21.9752598    
   32.2000008      -21.7188606    
   32.2500000      -21.4639397    
   32.2999992      -21.2108440    
   32.3499985      -20.9596615    
   32.4000015      -20.7102757    
   32.4500008      -20.4625435    
   32.5000000      -20.2164497    
   32.5499992      -19.9722157    
   32.5999985      -19.7302933    
   32.6500015      -19.4912682    
   32.7000008      -19.2556648    
   32.7500000      -19.0237923    
   32.7999992      -18.7956524    