  -10.0000000       0.00000000    
  -9.94999981       0.00000000    
  -9.89999962       0.00000000    
  -9.85000038       0.00000000    
  -9.80000019       0.00000000    
  -9.75000000       0.00000000    
  -9.69999981       0.00000000    
  -9.64999962       0.00000000    
  -9.60000038       0.00000000    
  -9.55000019      -4.90627391E-32
  -9.50000000      -1.20150148E-29
  -9.44999981      -1.50902160E-28
  -9.39999962      -9.87786839E-28
  -9.35000038      -4.66510730E-27
  -9.30000019      -1.91452490E-26
  -9.25000000      -7.50329056E-26
  -9.19999981      -2.77051820E-25
  -9.14999962      -9.06274667E-25
  -9.10000038      -2.49330277E-24
  -9.05000019      -5.52709595E-24
  -9.00000000      -9.19868298E-24
  -8.94999981      -8.99021071E-24
  -8.89999962       4.85983164E-24
  -8.85000038       4.17558340E-23
  -8.80000019       8.91502501E-23
  -8.75000000       7.47524783E-23
  -8.69999981      -1.56476139E-22
  -8.64999962      -7.69624564E-22
  -8.60000038      -1.66613330E-21
  -8.55000019      -1.99978143E-21
  -8.50000000       2.14333306E-22
  -8.44999981       7.60707361E-21
  -8.39999962       2.09921589E-20
  -8.35000038       3.44910405E-20
  -8.30000019       3.01781854E-20
  -8.25000000      -2.18153506E-20
  -8.19999981      -1.48386638E-19
  -8.14999962      -3.36460057E-19
  -8.10000038      -4.80123700E-19
  -8.05000019      -3.44953677E-19
  -8.00000000       3.86741626E-19
  -7.94999981       1.91754528E-18
  -7.90000010       3.96271295E-18
  -7.84999990       5.32251020E-18
  -7.80000019       3.72379920E-18
  -7.75000000      -3.57660324E-18
  -7.69999981      -1.79982590E-17
  -7.65000010      -3.67311272E-17
  -7.59999990      -4.98135907E-17
  -7.55000019      -3.95453445E-17
  -7.50000000       1.46736249E-17
  -7.44999981       1.23864354E-16
  -7.40000010       2.70589281E-16
  -7.34999990       3.90886329E-16
  -7.30000019       3.70793146E-16
  -7.25000000       7.42589881E-17
  -7.19999981      -5.86587839E-16
  -7.15000010      -1.54637479E-15
  -7.09999990      -2.48394106E-15
  -7.05000019      -2.79055026E-15
  -7.00000000      -1.69017621E-15
  -6.94999981       1.43416051E-15
  -6.90000010       6.53643043E-15
  -6.84999990       1.23836937E-14
  -6.80000019       1.63033039E-14
  -6.75000000       1.45539217E-14
  -6.69999981       3.57586140E-15
  -6.65000010      -1.79345539E-14
  -6.59999990      -4.66766620E-14
  -6.55000019      -7.31984528E-14
  -6.50000000      -8.25138772E-14
  -6.44999981      -5.79905861E-14
  -6.40000010       1.13883249E-14
  -6.34999990       1.21957322E-13
  -6.30000019       2.47933862E-13
  -6.25000000       3.40271377E-13
  -6.19999981       3.36031143E-13
  -6.15000010       1.79743468E-13
  -6.09999990      -1.46764396E-13
  -6.05000019      -5.95544393E-13
  -6.00000000      -1.03867338E-12
  -5.94999981      -1.28346520E-12
  -5.90000010      -1.12439181E-12
  -5.84999990      -4.26179328E-13
  -5.80000019       7.84315592E-13
  -5.75000000       2.25420941E-12
  -5.69999981       3.50949825E-12
  -5.65000010       3.95687693E-12
  -5.59999990       3.07965068E-12
  -5.55000019       6.82167430E-13
  -5.50000000      -2.90285461E-12
  -5.44999981      -6.74774082E-12
  -5.40000010      -9.48664237E-12
  -5.34999990      -9.71231429E-12
  -5.30000019      -6.53091513E-12
  -5.25000000      -9.35836085E-14
  -5.19999981       8.13168283E-12
  -5.15000010       1.55541899E-11
  -5.09999990       1.91935669E-11
  -5.05000019       1.68101904E-11
  -5.00000000       8.06452474E-12
  -4.94999981      -4.80390077E-12
  -4.90000010      -1.72457552E-11
  -4.84999990      -2.38161470E-11
  -4.80000019      -2.04701412E-11
  -4.75000000      -6.96898485E-12
  -4.69999981       1.17098596E-11
  -4.65000010       2.60118836E-11
  -4.59999990       2.49806200E-11
  -4.55000019       1.44329394E-12
  -4.50000000      -4.24803213E-11
  -4.44999981      -9.20695464E-11
  -4.40000010      -1.21421304E-10
  -4.34999990      -1.00967006E-10
  -4.30000019      -1.02191970E-11
  -4.25000000       1.47863999E-10
  -4.19999981       3.36731559E-10
  -4.15000010       4.86670648E-10
  -4.09999990       5.10132492E-10
  -4.05000019       3.31561500E-10
  -4.00000000      -7.50157922E-11
  -3.95000005      -6.53306020E-10
  -3.90000010      -1.25248645E-09
  -3.84999990      -1.64838021E-09
  -3.79999995      -1.60234848E-09
  -3.75000000      -9.48597423E-10
  -3.70000005       3.14045900E-10
  -3.65000010       1.96002481E-09
  -3.59999990       3.53897733E-09
  -3.54999995       4.46298509E-09
  -3.50000000       4.17486223E-09
  -3.45000005       2.36109243E-09
  -3.40000010      -8.55338411E-10
  -3.34999990      -4.81958562E-09
  -3.29999995      -8.41188630E-09
  -3.25000000      -1.03011750E-08
  -3.20000005      -9.34859923E-09
  -3.15000010      -5.05914199E-09
  -3.09999990       2.06630091E-09
  -3.04999995       1.04306688E-08
  -3.00000000       1.75952817E-08
  -2.95000005       2.08927755E-08
  -2.90000010       1.82758413E-08
  -2.84999990       9.16494525E-09
  -2.79999995      -4.99986053E-09
  -2.75000000      -2.07653912E-08
  -2.70000005      -3.33594237E-08
  -2.65000010      -3.79921090E-08
  -2.59999990      -3.14549631E-08
  -2.54999995      -1.35353515E-08
  -2.50000000       1.22773152E-08
  -2.45000005       3.91855508E-08
  -2.40000010       5.86733684E-08
  -2.34999990       6.29956389E-08
  -2.29999995       4.79023967E-08
  -2.25000000       1.47202623E-08
  -2.20000005      -2.90387199E-08
  -2.15000010      -7.10269816E-08
  -2.09999990      -9.72793615E-08
  -2.04999995      -9.65548139E-08
  -2.00000000      -6.45388525E-08
  -1.95000005      -6.46463416E-09
  -1.89999998       6.30064960E-08
  -1.85000002       1.23074074E-07
  -1.79999995       1.52683782E-07
  -1.75000000       1.37458130E-07
  -1.70000005       7.55111742E-08
  -1.64999998      -1.99875672E-08
  -1.60000002      -1.22875150E-07
  -1.54999995      -2.00708342E-07
  -1.50000000      -2.24581939E-07
  -1.45000005      -1.79218077E-07
  -1.39999998      -6.99738649E-08
  -1.35000002       7.60406564E-08
  -1.29999995       2.15958849E-07
  -1.25000000       3.03259753E-07
  -1.20000005       3.02754898E-07
  -1.14999998       2.03805328E-07
  -1.10000002       2.70670970E-08
  -1.04999995      -1.78389314E-07
  -1.00000000      -3.47900965E-07
 -0.949999988      -4.20954279E-07
 -0.899999976      -3.62066459E-07
 -0.850000024      -1.75869843E-07
 -0.800000012       8.94800252E-08
 -0.750000000       3.53241916E-07
 -0.699999988       5.25495466E-07
 -0.649999976       5.36637174E-07
 -0.600000024       3.63680243E-07
 -0.550000012       4.39613146E-08
 -0.500000000      -3.30046362E-07
 -0.449999988      -6.35463380E-07
 -0.400000006      -7.57324813E-07
 -0.349999994      -6.29122951E-07
 -0.300000012      -2.61982876E-07
 -0.250000000       2.48978495E-07
 -0.200000003       7.46230114E-07
 -0.150000006       1.05558217E-06
 -0.100000001       1.04363050E-06
  -5.00000007E-02   6.68822508E-07
   5.55111512E-16   7.94117838E-09
   5.00000007E-02  -7.54162386E-07
  0.100000001      -1.37283689E-06
  0.150000006      -1.61843900E-06
  0.200000003      -1.35580785E-06
  0.250000000      -6.02216346E-07
  0.300000012       4.58408692E-07
  0.349999994       1.51526922E-06
  0.400000006       2.21790970E-06
  0.449999988       2.28762087E-06
  0.500000000       1.61889409E-06
  0.550000012       3.35992524E-07
  0.600000024      -1.21954690E-06
  0.649999976      -2.57461784E-06
  0.699999988      -3.26384111E-06
  0.750000000      -2.98285136E-06
  0.800000012      -1.70680175E-06
  0.850000024       2.68803916E-07
  0.899999976       2.38718258E-06
  0.949999988       3.98120528E-06
   1.00000000       4.47721823E-06
   1.04999995       3.59123237E-06
   1.10000002       1.45289152E-06
   1.14999998      -1.39080191E-06
   1.20000005      -4.10607799E-06
   1.25000000      -5.80932192E-06
   1.29999995      -5.84505915E-06
   1.35000002      -4.01978468E-06
   1.39999998      -7.12046131E-07
   1.45000005       3.18896991E-06
   1.50000000       6.51373284E-06
   1.54999995       8.15456860E-06
   1.60000002       7.42156772E-06
   1.64999998       4.30037835E-06
   1.70000005      -4.79016933E-07
   1.75000000      -5.60156059E-06
   1.79999995      -9.52452046E-06
   1.85000002      -1.09376497E-05
   1.89999998      -9.18998558E-06
   1.95000005      -4.54625160E-06
   2.00000000       1.82164297E-06
   2.04999995       8.12651069E-06
   2.09999990       1.24716898E-05
   2.15000010       1.34283837E-05
   2.20000005       1.05087256E-05
   2.25000000       4.37852350E-06
   2.29999995      -3.27566340E-06
   2.34999990      -1.02074500E-05
   2.40000010      -1.42769550E-05
   2.45000005      -1.41263017E-05
   2.50000000      -9.65143681E-06
   2.54999995      -2.10726944E-06
   2.59999990       6.21173695E-06
   2.65000010       1.26423929E-05
   2.70000005       1.49850821E-05
   2.75000000       1.22429838E-05
   2.79999995       5.02571902E-06
   2.84999990      -4.53504344E-06
   2.90000010      -1.33655603E-05
   2.95000005      -1.83756802E-05
   3.00000000      -1.74596389E-05
   3.04999995      -1.02583717E-05
   3.09999990       1.57670502E-06
   3.15000010       1.47386936E-05
   3.20000005       2.51717993E-05
   3.25000000       2.92834084E-05
   3.29999995       2.51024521E-05
   3.34999990       1.30176159E-05
   3.40000010      -4.16336661E-06
   3.45000005      -2.18960431E-05
   3.50000000      -3.51580020E-05
   3.54999995      -3.99289238E-05
   3.59999990      -3.44471555E-05
   3.65000010      -1.98426151E-05
   3.70000005       8.10895884E-08
   3.75000000       1.98888029E-05
   3.79999995       3.40945699E-05
   3.84999990       3.88127628E-05
   3.90000010       3.29671784E-05
   3.95000005       1.86616562E-05
   4.00000000       5.63392916E-07
   4.05000019      -1.55421440E-05
   4.09999990      -2.45935134E-05
   4.15000010      -2.39136552E-05
   4.19999981      -1.41403789E-05
   4.25000000       9.10650158E-07
   4.30000019       1.54562567E-05
   4.34999990       2.36822707E-05
   4.40000010       2.17983634E-05
   4.44999981       9.52555456E-06
   4.50000000      -9.52667415E-06
   4.55000019      -2.88054416E-05
   4.59999990      -4.08684682E-05
   4.65000010      -3.99470082E-05
   4.69999981      -2.41978760E-05
   4.75000000       3.14382669E-06
   4.80000019       3.42077765E-05
   4.84999990       5.85457310E-05
   4.90000010       6.62964158E-05
   4.94999981       5.15445208E-05
   5.00000000       1.48112040E-05
   5.05000019      -3.62095489E-05
   5.09999990      -8.80818625E-05
   5.15000010      -1.24996775E-04
   5.19999981      -1.33225782E-04
   5.25000000      -1.05397157E-04
   5.30000019      -4.32827219E-05
   5.34999990       4.18683630E-05
   5.40000010       1.31742607E-04
   5.44999981       2.05610646E-04
   5.50000000       2.45995005E-04
   5.55000019       2.43758972E-04
   5.59999990       2.01094386E-04
   5.65000010       1.31421955E-04
   5.69999981       5.60796398E-05
   5.75000000      -1.38408711E-06
   5.80000019      -2.17518882E-05
   5.84999990       4.35794209E-06
   5.90000010       7.36628208E-05
   5.94999981       1.70971543E-04
   6.00000000       2.73404818E-04
   6.05000019       3.56933946E-04
   6.09999990       4.03372833E-04
   6.15000010       4.05776285E-04
   6.19999981       3.70622904E-04
   6.25000000       3.16083053E-04
   6.30000019       2.66827381E-04
   6.34999990       2.46874639E-04
   6.40000010       2.72591860E-04
   6.44999981       3.47947062E-04
   6.50000000       4.63464094E-04
   6.55000019       5.99227671E-04
   6.59999990       7.31058361E-04
   6.65000010       8.37998174E-04
   6.69999981       9.08825547E-04
   6.75000000       9.45587119E-04
   6.80000019       9.63037368E-04
   6.84999990       9.84129263E-04
   6.90000010       1.03293837E-03
   6.94999981       1.12722360E-03
   7.00000000       1.27297663E-03
   7.05000019       1.46272173E-03
   7.09999990       1.67816819E-03
   7.15000010       1.89644343E-03
   7.19999981       2.09796755E-03
   7.25000000       2.27345456E-03
   7.30000019       2.42773723E-03
   7.34999990       2.57906644E-03
   7.40000010       2.75394996E-03
   7.44999981       2.97905458E-03
   7.50000000       3.27269570E-03
   7.55000019       3.63869267E-03
   7.59999990       4.06471826E-03
   7.65000010       4.52593621E-03
   7.69999981       4.99304058E-03
   7.75000000       5.44236042E-03
   7.80000019       5.86490612E-03
   7.84999990       6.27139583E-03
   7.90000010       6.69141347E-03
   7.94999981       7.16660731E-03
   8.00000000       7.73968641E-03
   8.05000019       8.44239909E-03
   8.10000038       9.28614289E-03
   8.14999962       1.02582332E-02
   8.19999981       1.13252662E-02
   8.25000000       1.24429064E-02
   8.30000019       1.35694332E-02
   8.35000038       1.46791441E-02
   8.39999962       1.57716125E-02
   8.44999981       1.68739054E-02
   8.50000000       1.80349257E-02
   8.55000019       1.93133913E-02
   8.60000038       2.07629185E-02
   8.64999962       2.24186443E-02
   8.69999981       2.42894292E-02
   8.75000000       2.63580363E-02
   8.80000019       2.85892878E-02
   8.85000038       3.09437513E-02
   8.89999962       3.33927423E-02
   8.94999981       3.59300002E-02
   9.00000000       3.85763049E-02
   9.05000019       4.13756333E-02
   9.10000038       4.43838052E-02
   9.14999962       4.76533696E-02
   9.19999981       5.12193963E-02
   9.25000000       5.50908446E-02
   9.30000019       5.92504963E-02
   9.35000038       6.36637285E-02
   9.39999962       6.82935864E-02
   9.44999981       7.31175840E-02
   9.50000000       7.81408623E-02
   9.55000019       8.34013820E-02
   9.60000038       8.89652520E-02
   9.64999962       9.49131027E-02
   9.69999981      0.101321638    
   9.75000000      0.108245611    
   9.80000019      0.115706094    
   9.85000038      0.123688564    
   9.89999962      0.132151708    
   9.94999981      0.141044632    
   10.0000000      0.150327384    
   10.0500002      0.159988627    
   10.1000004      0.170055449    
   10.1499996      0.180592135    
   10.1999998      0.191688329    
   10.2500000      0.203440279    
   10.3000002      0.215930626    
   10.3500004      0.229212940    
   10.3999996      0.243305236    
   10.4499998      0.258194387    
   10.5000000      0.273849607    
   10.5500002      0.290240854    
   10.6000004      0.307356030    
   10.6499996      0.325211734    
   10.6999998      0.343854934    
   10.7500000      0.363354534    
   10.8000002      0.383786827    
   10.8500004      0.405219078    
   10.8999996      0.427697361    
   10.9499998      0.451242238    
   11.0000000      0.475854099    
   11.0500002      0.501526058    
   11.1000004      0.528259754    
   11.1499996      0.556079149    
   11.1999998      0.585036755    
   11.2500000      0.615209579    
   11.3000002      0.646686196    
   11.3500004      0.679548025    
   11.3999996      0.713851452    
   11.4499998      0.749615908    
   11.5000000      0.786823988    
   11.5500002      0.825432777    
   11.6000004      0.865394533    
   11.6499996      0.906680882    
   11.6999998      0.949302256    
   11.7500000      0.993317306    
   11.8000002       1.03882658    
   11.8500004       1.08595395    
   11.8999996       1.13481855    
   11.9499998       1.18550587    
   12.0000000       1.23804796    
   12.0500002       1.29241741    
   12.1000004       1.34853971    
   12.1499996       1.40631962    
   12.1999998       1.46567559    
   12.2500000       1.52657032    
   12.3000002       1.58903062    
   12.3500004       1.65314734    
   12.3999996       1.71905589    
   12.4499998       1.78690195    
   12.5000000       1.85680175    
   12.5500002       1.92880893    
   12.6000004       2.00289822    
   12.6499996       2.07897067    
   12.6999998       2.15688205    
   12.7500000       2.23648190    
   12.8000002       2.31765771    
   12.8500004       2.40036845    
   12.8999996       2.48465371    
   12.9499998       2.57062364    
   13.0000000       2.65842485    
   13.0500002       2.74819303    
   13.1000004       2.84001112    
   13.1499996       2.93387699    
   13.1999998       3.02969813    
   13.2500000       3.12730932    
   13.3000002       3.22651219    
   13.3500004       3.32712054    
   13.3999996       3.42900491    
   13.4499998       3.53211856    
   13.5000000       3.63649988    
   13.5500002       3.74224925    
   13.6000004       3.84949374    
   13.6499996       3.95833778    
   13.6999998       4.06882763    
   13.7500000       4.18092728    
   13.8000002       4.29451942    
   13.8500004       4.40942526    
   13.8999996       4.52543926    
   13.9499998       4.64236832    
   14.0000000       4.76006365    
   14.0500002       4.87843800    
   14.1000004       4.99746656    
   14.1499996       5.11716843    
   14.1999998       5.23758411    
   14.2500000       5.35874510    
   14.3000002       5.48065233    
   14.3500004       5.60326242    
   14.3999996       5.72649240    
   14.4499998       5.85022736    
   14.5000000       5.97434044    
   14.5500002       6.09870863    
   14.6000004       6.22322655    
   14.6499996       6.34781122    
   14.6999998       6.47239447    
   14.7500000       6.59692049    
   14.8000002       6.72132874    
   14.8500004       6.84554911    
   14.8999996       6.96949673    
   14.9499998       7.09308004    
   15.0000000       7.21620750    
   15.0500002       7.33880138    
   15.1000004       7.46080685    
   15.1499996       7.58219528    
   15.1999998       7.70296001    
   15.2500000       7.82310104    
   15.3000002       7.94261026    
   15.3500004       8.06145191    
   15.3999996       8.17955208    
   15.4499998       8.29679871    
   15.5000000       8.41305161    
   15.5500002       8.52816296    
   15.6000004       8.64200687    
   15.6499996       8.75449657    
   15.6999998       8.86560154    
   15.7500000       8.97534657    
   15.8000002       9.08379745    
   15.8500004       9.19103527    
   15.8999996       9.29712391    
   15.9499998       9.40208912    
   16.0000000       9.50590324    
   16.0499992       9.60848713    
   16.1000004       9.70972919    
   16.1499996       9.80950928    
   16.2000008       9.90772724    
   16.2500000       10.0043268    
   16.2999992       10.0993042    
   16.3500004       10.1927023    
   16.3999996       10.2845945    
   16.4500008       10.3750658    
   16.5000000       10.4641857    
   16.5499992       10.5520000    
   16.6000004       10.6385202    
   16.6499996       10.7237320    
   16.7000008       10.8076038    
   16.7500000       10.8901043    
   16.7999992       10.9712114    
   16.8500004       11.0509195    
   16.8999996       11.1292410    
   16.9500008       11.2062044    
   17.0000000       11.2818508    
   17.0499992       11.3562336    
   17.1000004       11.4294119    
   17.1499996       11.5014544    
   17.2000008       11.5724382    
   17.2500000       11.6424408    
   17.2999992       11.7115335    
   17.3500004       11.7797728    
   17.3999996       11.8471956    
   17.4500008       11.9138184    
   17.5000000       11.9796343    
   17.5499992       12.0446320    
   17.6000004       12.1088028    
   17.6499996       12.1721573    
   17.7000008       12.2347345    
   17.7500000       12.2966022    
   17.7999992       12.3578548    
   17.8500004       12.4186010    
   17.8999996       12.4789448    
   17.9500008       12.5389814    
   18.0000000       12.5987825    
   18.0499992       12.6583958    
   18.1000004       12.7178526    
   18.1499996       12.7771692    
   18.2000008       12.8363562    
   18.2500000       12.8954210    
   18.2999992       12.9543772    
   18.3500004       13.0132456    
   18.3999996       13.0720549    
   18.4500008       13.1308441    
   18.5000000       13.1896667    
   18.5499992       13.2485876    
   18.6000004       13.3076830    
   18.6499996       13.3670349    
   18.7000008       13.4267168    
   18.7500000       13.4867868    
   18.7999992       13.5472841    
   18.8500004       13.6082230    
   18.8999996       13.6695995    
   18.9500008       13.7314014    
   19.0000000       13.7936258    
   19.0499992       13.8562794    
   19.1000004       13.9193907    
   19.1499996       13.9830027    
   19.2000008       14.0471621    
   19.2500000       14.1119099    
   19.2999992       14.1772690    
   19.3500004       14.2432461    
   19.3999996       14.3098316    
   19.4500008       14.3770151    
   19.5000000       14.4447956    
   19.5499992       14.5131912    
   19.6000004       14.5822411    
   19.6499996       14.6519890    
   19.7000008       14.7224846    
   19.7500000       14.7937593    
   19.7999992       14.8658190    
   19.8500004       14.9386492    
   19.8999996       15.0122204    
   19.9500008       15.0865011    
   20.0000000       15.1614752    
   20.0499992       15.2371340    
   20.1000004       15.3134890    
   20.1499996       15.3905497    
   20.2000008       15.4683142    
   20.2500000       15.5467615    
   20.2999992       15.6258564    
   20.3500004       15.7055559    
   20.3999996       15.7858295    
   20.4500008       15.8666744    
   20.5000000       15.9481239    
   20.5499992       16.0302372    
   20.6000004       16.1130848    
   20.6499996       16.1967239    
   20.7000008       16.2811642    
   20.7500000       16.3663692    
   20.7999992       16.4522438    
   20.8500004       16.5386677    
   20.8999996       16.6255226    
   20.9500008       16.7127151    
   21.0000000       16.8002129    
   21.0499992       16.8880291    
   21.1000004       16.9762211    
   21.1499996       17.0648556    
   21.2000008       17.1539860    
   21.2500000       17.2436333    
   21.2999992       17.3337822    
   21.3500004       17.4243870    
   21.3999996       17.5154018    
   21.4500008       17.6067715    
   21.5000000       17.6984673    
   21.5499992       17.7904587    
   21.6000004       17.8827152    
   21.6499996       17.9751835    
   21.7000008       18.0677948    
   21.7500000       18.1604557    
   21.7999992       18.2530823    
   21.8500004       18.3456154    
   21.8999996       18.4380379    
   21.9500008       18.5303802    
   22.0000000       18.6227055    
   22.0499992       18.7150726    
   22.1000004       18.8075104    
   22.1499996       18.8999901    
   22.2000008       18.9924221    
   22.2500000       19.0846729    
   22.2999992       19.1766129    
   22.3500004       19.2681313    
   22.3999996       19.3591728    
   22.4500008       19.4497375    
   22.5000000       19.5398579    
   22.5499992       19.6295605    
   22.6000004       19.7188301    
   22.6499996       19.8075905    
   22.7000008       19.8957119    
   22.7500000       19.9830322    
   22.7999992       20.0694122    
   22.8500004       20.1547661    
   22.8999996       20.2390823    
   22.9500008       20.3224049    
   23.0000000       20.4048061    
   23.0499992       20.4863281    
   23.1000004       20.5669403    
   23.1499996       20.6465340    
   23.2000008       20.7249241    
   23.2500000       20.8019066    
   23.2999992       20.8773079    
   23.3500004       20.9510269    
   23.3999996       21.0230484    
   23.4500008       21.0934258    
   23.5000000       21.1622162    
   23.5499992       21.2294445    
   23.6000004       21.2950478    
   23.6499996       21.3588696    
   23.7000008       21.4206944    
   23.7500000       21.4802933    
   23.7999992       21.5374889    
   23.8500004       21.5921993    
   23.8999996       21.6444321    
   23.9500008       21.6942596    
   24.0000000       21.7417488    
   24.0499992       21.7869129    
   24.1000004       21.8296757    
   24.1499996       21.8698711    
   24.2000008       21.9072781    
   24.2500000       21.9416943    
   24.2999992       21.9729786    
   24.3500004       22.0010834    
   24.3999996       22.0260429    
   24.4500008       22.0479240    
   24.5000000       22.0667763    
   24.5499992       22.0825672    
   24.6000004       22.0951691    
   24.6499996       22.1043835    
   24.7000008       22.1099873    
   24.7500000       22.1118031    
   24.7999992       22.1097355    
   24.8500004       22.1037922    
   24.8999996       22.0940514    
   24.9500008       22.0806007    
   25.0000000       22.0634937    
   25.0499992       22.0427017    
   25.1000004       22.0181217    
   25.1499996       21.9896145    
   25.2000008       21.9570637    
   25.2500000       21.9204178    
   25.2999992       21.8797150    
   25.3500004       21.8350620    
   25.3999996       21.7865677    
   25.4500008       21.7342930    
   25.5000000       21.6781883    
   25.5499992       21.6180992    
   25.6000004       21.5538082    
   25.6499996       21.4851151    
   25.7000008       21.4119205    
   25.7500000       21.3342819    
   25.7999992       21.2524071    
   25.8500004       21.1666107    
   25.8999996       21.0772076    
   25.9500008       20.9844227    
   26.0000000       20.8883266    
   26.0499992       20.7888317    
   26.1000004       20.6857510    
   26.1499996       20.5788860    
   26.2000008       20.4681244    
   26.2500000       20.3535080    
   26.2999992       20.2352276    
   26.3500004       20.1135616    
   26.3999996       19.9888039    
   26.4500008       19.8611641    
   26.5000000       19.7307262    
   26.5499992       19.5974636    
   26.6000004       19.4612961    
   26.6499996       19.3221855    
   26.7000008       19.1801987    
   26.7500000       19.0355358    
   26.7999992       18.8885212    
   26.8500004       18.7395058    
   26.8999996       18.5887794    
   26.9500008       18.4365234    
   27.0000000       18.2827663    
   27.0499992       18.1274376    
   27.1000004       17.9704456    
   27.1499996       17.8117733    
   27.2000008       17.6515331    
   27.2500000       17.4899731    
   27.2999992       17.3274364    
   27.3500004       17.1642647    
   27.3999996       17.0007267    
   27.4500008       16.8369713    
   27.5000000       16.6730328    
   27.5499992       16.5088921    
   27.6000004       16.3445568    
   27.6499996       16.1801300    
   27.7000008       16.0158424    
   27.7500000       15.8520145    
   27.7999992       15.6889868    
   27.8500004       15.5270262    
   27.8999996       15.3662691    
   27.9500008       15.2067080    
   28.0000000       15.0482416    
   28.0499992       14.8907642    
   28.1000004       14.7342587    
   28.1499996       14.5788517    
   28.2000008       14.4248199    
   28.2500000       14.2725239    
   28.2999992       14.1223059    
   28.3500004       13.9744053    
   28.3999996       13.8289061    
   28.4500008       13.6857510    
   28.5000000       13.5448103    
   28.5499992       13.4059763    
   28.6000004       13.2692518    
   28.6499996       13.1347742    
   28.7000008       13.0027914    
   28.7500000       12.8735790    
   28.7999992       12.7473412    
   28.8500004       12.6241417    
   28.8999996       12.5038881    
   28.9500008       12.3863850    
   29.0000000       12.2714262    
   29.0499992       12.1589022    
   29.1000004       12.0488567    
   29.1499996       11.9414892    
   29.2000008       11.8370838    
   29.2500000       11.7359076    
   29.2999992       11.6381054    
   29.3500004       11.5436468    
   29.3999996       11.4523344    
   29.4500008       11.3638859    
   29.5000000       11.2780409    
   29.5499992       11.1946573    
   29.6000004       11.1137514    
   29.6499996       11.0354748    
   29.7000008       10.9600306    
   29.7500000       10.8875666    
   29.7999992       10.8181000    
   29.8500004       10.7514896    
   29.8999996       10.6874838    
   29.9500008       10.6258087    
   30.0000000       10.5662746    
   30.0499992       10.5088387    
   30.1000004       10.4536009    
   30.1499996       10.4007473    
   30.2000008       10.3504391    
   30.2500000       10.3027182    
   30.2999992       10.2574549    
   30.3500004       10.2143679    
   30.3999996       10.1731100    
   30.4500008       10.1333742    
   30.5000000       10.0949936    
   30.5499992       10.0579815    
   30.6000004       10.0224943    
   30.6499996       9.98873901    
   30.7000008       9.95686054    
   30.7500000       9.92686081    
   30.7999992       9.89856625    
   30.8500004       9.87168026    
   30.8999996       9.84588909    
   30.9500008       9.82096195    
   31.0000000       9.79681873    
   31.0499992       9.77354050    
   31.1000004       9.75129032    
   31.1499996       9.73021603    
   31.2000008       9.71035099    
   31.2500000       9.69155788    
   31.2999992       9.67356396    
   31.3500004       9.65604305    
   31.3999996       9.63873672    
   31.4500008       9.62154388    
   31.5000000       9.60455704    
   31.5499992       9.58801270    
   31.6000004       9.57218361    
   31.6499996       9.55725384    
   31.7000008       9.54322910    
   31.7500000       9.52991486    
   31.7999992       9.51697922    
   31.8500004       9.50406170    
   31.8999996       9.49090385    
   31.9500008       9.47742748    
   32.0000000       9.46373558    
   32.0499992       9.45005035    
   32.0999985       9.43659401    
   32.1500015       9.42347813    
   32.2000008       9.41065025    
   32.2500000       9.39791298    
   32.2999992       9.38501263    
   32.3499985       9.37175465    
   32.4000015       9.35809803    
   32.4500008       9.34418583    
   32.5000000       9.33028603    
   32.5499992       9.31668282    
   32.5999985       9.30354404    
   32.6500015       9.29083729    
   32.7000008       9.27832127    
   32.7500000       9.26562595    
   32.7999992       9.25238419    